      -----------------------------------------------------------      
     |                   =====================                   |     
     |                           x T B                           |     
     |                   =====================                   |     
     |                         S. Grimme                         |     
     |          Mulliken Center for Theoretical Chemistry        |     
     |                    University of Bonn                     |     
      -----------------------------------------------------------      

   * xtb version 6.7.1 (edcfbbe) compiled by 'albert@albert-system' on 2024-07-22

   xtb is free software: you can redistribute it and/or modify it under
   the terms of the GNU Lesser General Public License as published by
   the Free Software Foundation, either version 3 of the License, or
   (at your option) any later version.
   
   xtb is distributed in the hope that it will be useful,
   but WITHOUT ANY WARRANTY; without even the implied warranty of
   MERCHANTABILITY or FITNESS FOR A PARTICULAR PURPOSE.  See the
   GNU Lesser General Public License for more details.
   
   Cite this work as:
   * C. Bannwarth, E. Caldeweyher, S. Ehlert, A. Hansen, P. Pracht,
     J. Seibert, S. Spicher, S. Grimme, WIREs Comput. Mol. Sci., 2020, 11,
     e01493. DOI: 10.1002/wcms.1493
   
   for GFN2-xTB:
   * C. Bannwarth, S. Ehlert and S. Grimme., J. Chem. Theory Comput., 2019,
     15, 1652-1671. DOI: 10.1021/acs.jctc.8b01176
   for GFN1-xTB:
   * S. Grimme, C. Bannwarth, P. Shushkov, J. Chem. Theory Comput., 2017,
     13, 1989-2009. DOI: 10.1021/acs.jctc.7b00118
   for GFN0-xTB:
   * P. Pracht, E. Caldeweyher, S. Ehlert, S. Grimme, ChemRxiv, 2019, preprint.
     DOI: 10.26434/chemrxiv.8326202.v1
   for GFN-FF:
   * S. Spicher and S. Grimme, Angew. Chem. Int. Ed., 2020, 59, 15665-15673.
     DOI: 10.1002/anie.202004239
   
   for ALPB and GBSA implicit solvation:
   * S. Ehlert, M. Stahn, S. Spicher, S. Grimme, J. Chem. Theory Comput.,
     2021, 17, 4250-4261. DOI: 10.1021/acs.jctc.1c00471
   
   for ddCOSMO and CPCM-X implicit solvation:
   * M. Stahn, S. Ehlert, S. Grimme, J. Phys. Chem. A,
     2023, XX, XXXX-XXXX. DOI: 10.1021/acs.jpca.3c04382
   
   for DFT-D4:
   * E. Caldeweyher, C. Bannwarth and S. Grimme, J. Chem. Phys., 2017,
     147, 034112. DOI: 10.1063/1.4993215
   * E. Caldeweyher, S. Ehlert, A. Hansen, H. Neugebauer, S. Spicher,
     C. Bannwarth and S. Grimme, J. Chem. Phys., 2019, 150, 154122.
     DOI: 10.1063/1.5090222
   * E. Caldeweyher, J.-M. Mewes, S. Ehlert and S. Grimme, Phys. Chem. Chem. Phys.
     2020, 22, 8499-8512. DOI: 10.1039/D0CP00502A
   
   for sTDA-xTB:
   * S. Grimme and C. Bannwarth, J. Chem. Phys., 2016, 145, 054103.
     DOI: 10.1063/1.4959605
   
   in the mass-spec context:
   * V. Asgeirsson, C. Bauer and S. Grimme, Chem. Sci., 2017, 8, 4879.
     DOI: 10.1039/c7sc00601b
   * J. Koopman and S. Grimme, ACS Omega 2019, 4, 12, 15120-15133.
     DOI: 10.1021/acsomega.9b02011
   
   for metadynamics refer to:
   * S. Grimme, J. Chem. Theory Comput., 2019, 155, 2847-2862
     DOI: 10.1021/acs.jctc.9b00143
   
   for SPH calculations refer to:
   * S. Spicher and S. Grimme, J. Chem. Theory Comput., 2021, 17, 1701-1714
     DOI: 10.1021/acs.jctc.0c01306
   
   for ONIOM refer to:
   * C. Plett, A. Katbashev, S. Ehlert, S. Grimme, M. Bursch,
     Phys. Chem. Chem. Phys., 2023, 25, 17860-17868. DOI: 10.1039/D3CP02178E
   
   for DIPRO refer to:
   * J. Kohn, N. Gildemeister, S. Grimme, D. Fazzi, A. Hansen,
     J. Chem. Phys., 2023, just accepted.
   
   for PTB refer to:
   * S. Grimme, M. Mueller, A. Hansen, J. Chem. Phys., 2023, 158, 124111.
     DOI: 10.1063/5.0137838
   
   with help from (in alphabetical order)
   P. Atkinson, C. Bannwarth, F. Bohle, G. Brandenburg, E. Caldeweyher
   M. Checinski, S. Dohm, S. Ehlert, S. Ehrlich, I. Gerasimov, C. Hölzer
   A. Katbashev, J. Kohn, J. Koopman, C. Lavigne, S. Lehtola, F. März, M. Müller,
   F. Musil, H. Neugebauer, J. Pisarek, C. Plett, P. Pracht, F. Pultar,
   J. Seibert, P. Shushkov, S. Spicher, M. Stahn, M. Steiner, T. Strunk,
   J. Stückrath, T. Rose, and J. Unsleber
   
 * started run on 2025/04/11 at 12:33:37.614     
   ID    Z sym.   atoms
    1    6 C      1-3
    2    7 N      4
    3    8 O      5, 6
    4    1 H      7-13

           -------------------------------------------------
          |                Calculation Setup                |
           -------------------------------------------------

          program call               : /srv/scratch/z5358697/.xtb/bin/xtb xtb_rrho.coord --gfn2 --ohess vtight --chrg 0 --enso --norestart -I rrho-xcontrol-inp --parallel 1 --alpb water
          hostname                   : k061
          coordinate file            : xtb_rrho.coord
          omp threads                :                     1


           -------------------------------------------------
          |                 G F N 2 - x T B                 |
           -------------------------------------------------

        Reference                      10.1021/acs.jctc.8b01176
      * Hamiltonian:
        H0-scaling (s, p, d)           1.850000    2.230000    2.230000
        zeta-weighting                 0.500000
      * Dispersion:
        s8                             2.700000
        a1                             0.520000
        a2                             5.000000
        s9                             5.000000
      * Repulsion:
        kExp                           1.500000    1.000000
        rExp                           1.000000
      * Coulomb:
        alpha                          2.000000
        third order                    shell-resolved
        anisotropic                    true
        a3                             3.000000
        a5                             4.000000
        cn-shift                       1.200000
        cn-exp                         4.000000
        max-rad                        5.000000

      * Solvation model:               ALPB
        Solvent                        water
        Parameter file                 internal GFN2-xTB/ALPB
        Dielectric constant                8.0200E+01
        Reference state                gsolv [1 M gas/solution]
        Free energy shift                  1.0808E-03 Eh       6.7819E-01 kcal/mol
        Temperature                        2.9815E+02 K
        Density                            1.0000E+00 kg/L
        Solvent mass                       1.8000E+01 g/mol
        Interaction kernel             P16
        Born radius scaling (c1)           1.4744E+00
        Born radii integrator          GBOBC
        Born offset                        0.0000E+00 a0       0.0000E+00 AA
        H-bond correction              true
        Ion screening                  false
        Surface tension                    1.0000E-05 Eh       1.5569E+01 dyn/cm
        Grid points                               974 per atom

          ...................................................
          :                      SETUP                      :
          :.................................................:
          :  # basis functions                  31          :
          :  # atomic orbitals                  31          :
          :  # shells                           19          :
          :  # electrons                        36          :
          :  max. iterations                   250          :
          :  Hamiltonian                  GFN2-xTB          :
          :  restarted?                      false          :
          :  GBSA solvation                   true          :
          :  PC potential                    false          :
          :  electronic temp.          300.0000000     K    :
          :  accuracy                    1.0000000          :
          :  -> integral cutoff          0.2500000E+02      :
          :  -> integral neglect         0.1000000E-07      :
          :  -> SCF convergence          0.1000000E-05 Eh   :
          :  -> wf. convergence          0.1000000E-03 e    :
          :  Broyden damping             0.4000000          :
          :  net charge                          0          :
          :  unpaired electrons                  0          :
          ...................................................

 iter      E             dE          RMSdq      gap      omega  full diag
   1    -21.0280915 -0.210281E+02  0.530E+00    4.73       0.0  T
   2    -21.1394475 -0.111356E+00  0.215E+00    3.62       1.0  T
   3    -21.1413866 -0.193906E-02  0.119E+00    3.39       1.0  T
   4    -21.1416618 -0.275245E-03  0.129E-01    3.14       1.0  T
   5    -21.1416735 -0.116615E-04  0.759E-02    3.16       1.0  T
   6    -21.1416758 -0.235489E-05  0.105E-02    3.17       2.6  T
   7    -21.1416760 -0.133559E-06  0.594E-03    3.16       4.7  T
   8    -21.1416760 -0.245797E-07  0.105E-03    3.16      26.3  T
   9    -21.1416760 -0.107229E-08  0.441E-04    3.16      62.9  T
  10    -21.1416760 -0.129202E-09  0.575E-05    3.16     482.5  T

   *** convergence criteria satisfied after 10 iterations ***

         #    Occupation            Energy/Eh            Energy/eV
      -------------------------------------------------------------
         1        2.0000           -0.7806967             -21.2438
       ...           ...                  ...                  ...
        12        2.0000           -0.4869368             -13.2502
        13        2.0000           -0.4803106             -13.0699
        14        2.0000           -0.4774030             -12.9908
        15        2.0000           -0.4644694             -12.6389
        16        2.0000           -0.4523776             -12.3098
        17        2.0000           -0.4431645             -12.0591
        18        2.0000           -0.4359410             -11.8626 (HOMO)
        19                         -0.3197004              -8.6995 (LUMO)
        20                         -0.0695621              -1.8929
        21                          0.1009460               2.7469
        22                          0.1195442               3.2530
        23                          0.1211472               3.2966
       ...                                ...                  ...
        31                          0.3821631              10.3992
      -------------------------------------------------------------
                  HL-Gap            0.1162406 Eh            3.1631 eV
             Fermi-level           -0.3778207 Eh          -10.2810 eV

 SCC (total)                   0 d,  0 h,  0 min,  0.027 sec
 SCC setup                      ...        0 min,  0.001 sec (  3.295%)
 Dispersion                     ...        0 min,  0.000 sec (  0.216%)
 classical contributions        ...        0 min,  0.000 sec (  0.065%)
 integral evaluation            ...        0 min,  0.001 sec (  3.522%)
 iterations                     ...        0 min,  0.023 sec ( 83.341%)
 molecular gradient             ...        0 min,  0.002 sec (  9.030%)
 printout                       ...        0 min,  0.000 sec (  0.475%)

         :::::::::::::::::::::::::::::::::::::::::::::::::::::
         ::                     SUMMARY                     ::
         :::::::::::::::::::::::::::::::::::::::::::::::::::::
         :: total energy             -20.960180909782 Eh    ::
         :: total w/o Gsasa/hb       -20.962111031783 Eh    ::
         :: gradient norm              0.039443421486 Eh/a0 ::
         :: HOMO-LUMO gap              3.163067798581 eV    ::
         ::.................................................::
         :: SCC energy               -21.141672154327 Eh    ::
         :: -> isotropic ES            0.063701227702 Eh    ::
         :: -> anisotropic ES          0.006372183845 Eh    ::
         :: -> anisotropic XC          0.004540716579 Eh    ::
         :: -> dispersion             -0.006317872837 Eh    ::
         :: -> Gsolv                  -0.011239267515 Eh    ::
         ::    -> Gelec               -0.013169389517 Eh    ::
         ::    -> Gsasa                0.003773630454 Eh    ::
         ::    -> Ghb                 -0.002924268150 Eh    ::
         ::    -> Gshift               0.001080759698 Eh    ::
         :: repulsion energy           0.181491244546 Eh    ::
         :: add. restraining           0.000000000000 Eh    ::
         :: total charge              -0.000000000000 e     ::
         :::::::::::::::::::::::::::::::::::::::::::::::::::::

      ----------------------------------------------------------- 
     |                   =====================                   |
     |                        A N C O P T                        |
     |                   =====================                   |
     |               Approximate Normal Coordinate               |
     |                Rational Function Optimizer                |
      ----------------------------------------------------------- 
      ----------------------------------------------------------- 
     |                   =====================                   |
     |                        A N C O P T                        |
     |                   =====================                   |
     |               Approximate Normal Coordinate               |
     |                Rational Function Optimizer                |
      ----------------------------------------------------------- 

          ...................................................
          :                      SETUP                      :
          :.................................................:
          :   optimization level         verytight          :
          :   max. optcycles                   260          :
          :   ANC micro-cycles                  20          :
          :   degrees of freedom                33          :
          :.................................................:
          :   RF solver                   davidson          :
          :   write xtbopt.log                true          :
          :   linear?                        false          :
          :   energy convergence         0.1000000E-06 Eh   :
          :   grad. convergence          0.2000000E-03 Eh/α :
          :   maxmium RF displ.          1.0000000          :
          :   Hlow (freq-cutoff)         0.1000000E-01      :
          :   Hmax (freq-cutoff)         5.0000000          :
          :   S6 in model hess.         20.0000000          :
          ...................................................

generating ANC from exact Hessian ...
Using Lindh-Hessian (1995)
 Shifting diagonal of input Hessian by   5.284260375792883E-003
 Lowest  eigenvalues of input Hessian
    0.000000    0.000000    0.000000    0.000000    0.000000    0.000000
    0.010000    0.013104    0.014031    0.022931    0.025013    0.045418
    0.047907    0.057456    0.060626    0.064534    0.078978    0.082695
 Highest eigenvalues
    1.096137    1.182213    1.223121    1.308489    1.906898    2.453577
 

........................................................................
.............................. CYCLE    1 ..............................
........................................................................

 iter      E             dE          RMSdq      gap      omega  full diag
   1    -21.1416760 -0.211417E+02  0.284E-05    3.16       0.0  T
   2    -21.1416760 -0.280664E-12  0.178E-05    3.16    1558.9  T
   3    -21.1416760 -0.145661E-12  0.271E-06    3.16   10224.1  T
     SCC iter.                  ...        0 min,  0.007 sec
     gradient                   ...        0 min,  0.003 sec
 * total energy  :   -20.9601809 Eh     change       -0.9958256E-11 Eh
   gradient norm :     0.0394432 Eh/α   predicted     0.0000000E+00 (-100.00%)
   displ. norm   :     0.1261734 α      lambda       -0.2360919E-02
   maximum displ.:     0.0801903 α      in ANC's #5, #2, #21, ...

........................................................................
.............................. CYCLE    2 ..............................
........................................................................

 iter      E             dE          RMSdq      gap      omega  full diag
   1    -21.1510093 -0.211510E+02  0.148E-01    3.34       0.0  T
   2    -21.1510971 -0.877741E-04  0.712E-02    3.31       1.0  T
   3    -21.1510991 -0.199109E-05  0.409E-02    3.30       1.0  T
   4    -21.1510995 -0.397676E-06  0.550E-03    3.30       5.0  T
   5    -21.1510996 -0.604095E-07  0.308E-03    3.30       9.0  T
   6    -21.1510996 -0.421884E-08  0.623E-04    3.30      44.5  T
   7    -21.1510996 -0.380989E-09  0.263E-04    3.30     105.6  T
     SCC iter.                  ...        0 min,  0.002 sec
     gradient                   ...        0 min,  0.003 sec
 * total energy  :   -20.9618052 Eh     change       -0.1624282E-02 Eh
   gradient norm :     0.0183025 Eh/α   predicted    -0.1199252E-02 ( -26.17%)
   displ. norm   :     0.0683023 α      lambda       -0.7011873E-03
   maximum displ.:     0.0386991 α      in ANC's #5, #2, #25, ...

........................................................................
.............................. CYCLE    3 ..............................
........................................................................

 iter      E             dE          RMSdq      gap      omega  full diag
   1    -21.1551806 -0.211552E+02  0.970E-02    3.39       0.0  T
   2    -21.1552102 -0.295925E-04  0.483E-02    3.38       1.0  T
   3    -21.1552109 -0.709371E-06  0.256E-02    3.38       1.1  T
   4    -21.1552111 -0.113780E-06  0.282E-03    3.38       9.8  T
   5    -21.1552111 -0.928556E-08  0.161E-03    3.38      17.2  T
   6    -21.1552111 -0.904095E-09  0.274E-04    3.38     101.3  T
   7    -21.1552111 -0.102304E-09  0.120E-04    3.38     231.9  T
     SCC iter.                  ...        0 min,  0.002 sec
     gradient                   ...        0 min,  0.003 sec
 * total energy  :   -20.9621713 Eh     change       -0.3661448E-03 Eh
   gradient norm :     0.0073795 Eh/α   predicted    -0.3522288E-03 (  -3.80%)
   displ. norm   :     0.0137561 α      lambda       -0.4034402E-04
   maximum displ.:     0.0079673 α      in ANC's #2, #13, #5, ...

........................................................................
.............................. CYCLE    4 ..............................
........................................................................

 iter      E             dE          RMSdq      gap      omega  full diag
   1    -21.1544400 -0.211544E+02  0.153E-02    3.36       0.0  T
   2    -21.1544403 -0.292088E-06  0.904E-03    3.36       3.1  T
   3    -21.1544403 -0.279335E-07  0.248E-03    3.36      11.2  T
   4    -21.1544403 -0.425017E-08  0.664E-04    3.36      41.7  T
   5    -21.1544403 -0.440973E-09  0.326E-04    3.36      85.1  T
     SCC iter.                  ...        0 min,  0.001 sec
     gradient                   ...        0 min,  0.003 sec
 * total energy  :   -20.9621969 Eh     change       -0.2555972E-04 Eh
   gradient norm :     0.0036010 Eh/α   predicted    -0.2017408E-04 ( -21.07%)
   displ. norm   :     0.0151738 α      lambda       -0.2723316E-04
   maximum displ.:     0.0067593 α      in ANC's #6, #13, #32, ...

........................................................................
.............................. CYCLE    5 ..............................
........................................................................

 iter      E             dE          RMSdq      gap      omega  full diag
   1    -21.1535093 -0.211535E+02  0.175E-02    3.34       0.0  T
   2    -21.1535099 -0.535451E-06  0.101E-02    3.34       2.8  T
   3    -21.1535099 -0.407542E-07  0.351E-03    3.34       7.9  T
   4    -21.1535099 -0.656085E-08  0.818E-04    3.35      33.9  T
   5    -21.1535099 -0.675811E-09  0.404E-04    3.35      68.6  T
     SCC iter.                  ...        0 min,  0.001 sec
     gradient                   ...        0 min,  0.003 sec
 * total energy  :   -20.9621981 Eh     change       -0.1250790E-05 Eh
   gradient norm :     0.0022638 Eh/α   predicted    -0.1361885E-04 ( 988.82%)
   displ. norm   :     0.0105119 α      lambda       -0.1535109E-04
   maximum displ.:     0.0051103 α      in ANC's #2, #6, #7, ...

........................................................................
.............................. CYCLE    6 ..............................
........................................................................

 iter      E             dE          RMSdq      gap      omega  full diag
   1    -21.1537973 -0.211538E+02  0.867E-03    3.35       0.0  T
   2    -21.1537974 -0.384991E-07  0.501E-03    3.35       5.5  T
   3    -21.1537974 -0.577636E-08  0.824E-04    3.35      33.6  T
   4    -21.1537974 -0.496751E-09  0.287E-04    3.35      96.7  T
     SCC iter.                  ...        0 min,  0.001 sec
     gradient                   ...        0 min,  0.003 sec
 * total energy  :   -20.9622059 Eh     change       -0.7713414E-05 Eh
   gradient norm :     0.0003494 Eh/α   predicted    -0.7676826E-05 (  -0.47%)
   displ. norm   :     0.0029953 α      lambda       -0.2887514E-06
   maximum displ.:     0.0024222 α      in ANC's #2, #13, #5, ...

........................................................................
.............................. CYCLE    7 ..............................
........................................................................

 iter      E             dE          RMSdq      gap      omega  full diag
   1    -21.1538870 -0.211539E+02  0.253E-03    3.35       0.0  T
   2    -21.1538870 -0.540972E-08  0.151E-03    3.35      18.4  T
   3    -21.1538870 -0.313836E-09  0.401E-04    3.35      69.2  T
   4    -21.1538870 -0.855387E-10  0.753E-05    3.35     368.4  T
     SCC iter.                  ...        0 min,  0.001 sec
     gradient                   ...        0 min,  0.003 sec
 * total energy  :   -20.9622061 Eh     change       -0.2064432E-06 Eh
   gradient norm :     0.0001438 Eh/α   predicted    -0.1439039E-06 ( -30.29%)
   displ. norm   :     0.0011348 α      lambda       -0.3370144E-07
   maximum displ.:     0.0005745 α      in ANC's #2, #5, #3, ...

........................................................................
.............................. CYCLE    8 ..............................
........................................................................

 iter      E             dE          RMSdq      gap      omega  full diag
   1    -21.1538635 -0.211539E+02  0.116E-03    3.35       0.0  T
   2    -21.1538635 -0.906098E-09  0.676E-04    3.35      41.0  T
   3    -21.1538635 -0.856666E-10  0.127E-04    3.35     218.7  T
     SCC iter.                  ...        0 min,  0.001 sec
     gradient                   ...        0 min,  0.003 sec
 * total energy  :   -20.9622061 Eh     change       -0.1810381E-07 Eh
   gradient norm :     0.0000590 Eh/α   predicted    -0.1884802E-07 (   4.11%)
   displ. norm   :     0.0004629 α      lambda       -0.9192556E-08
   maximum displ.:     0.0002669 α      in ANC's #3, #5, #2, ...

   *** GEOMETRY OPTIMIZATION CONVERGED AFTER 8 ITERATIONS ***

------------------------------------------------------------------------
 total energy gain   :        -0.0020252 Eh       -1.2708 kcal/mol
 total RMSD          :         0.0536509 a0        0.0284 Å
 total power (kW/mol):        -0.6646373 (step)  -79.2754 (real)
------------------------------------------------------------------------

 ANCopt (total)                0 d,  0 h,  0 min,  0.067 sec
 optimizer setup                ...        0 min,  0.001 sec (  0.754%)
 model hessian                  ...        0 min,  0.005 sec (  7.437%)
 ANC generation                 ...        0 min,  0.000 sec (  0.723%)
 coordinate transformation      ...        0 min,  0.000 sec (  0.071%)
 single point calculation       ...        0 min,  0.055 sec ( 81.834%)
 optimization log               ...        0 min,  0.005 sec (  7.296%)
 hessian update                 ...        0 min,  0.000 sec (  0.058%)
 rational function              ...        0 min,  0.001 sec (  1.129%)

================
 final structure:
================
$coord
       -5.21198629957928        0.25573926148543        0.00910999748428      C
       -2.57447278783437       -0.77994517315969        0.52652319127267      C
       -0.56992733305906        0.98033002446906       -0.54412587929939      C
        1.99453466484875        0.07432136131054       -0.09903131909487      N
        3.71871844260419        1.36846023536230       -0.90293231041524      O
        2.30384372358475       -1.89324367788085        1.03223833571161      O
       -5.53593953716543        0.43982494339662       -2.01031857264481      H
       -6.62901424495058       -1.01293301459804        0.77842212570857      H
       -5.45165584732490        2.09922020786989        0.88147964285581      H
       -2.37262026105644       -2.64754902572633       -0.32317347174436      H
       -2.28771805459796       -0.99248012760494        2.55708716893896      H
       -0.77611427235569        1.21018309176222       -2.58777791631549      H
       -0.69116425231765        2.86534498824566        0.29506244200875      H
$end
 
 Bond Distances (Angstroems)
 ---------------------------
C1-C2=1.5243         C1-H7=1.0867         C1-H8=1.0857         C1-H9=1.0867         C2-C1=1.5243         C2-C3=1.5211         
C2-H10=1.0910        C2-H11=1.0910        C3-C2=1.5211         C3-N4=1.4584         C3-H12=1.0937        C3-H13=1.0938        
N4-C3=1.4584         N4-O5=1.2176         N4-O6=1.2121         O5-N4=1.2176         O6-N4=1.2121         H7-C1=1.0867         
H8-C1=1.0857         H9-C1=1.0867         H10-C2=1.0910        H11-C2=1.0910        H12-C3=1.0937        H13-C3=1.0938        
 C  H  Rav=1.0898 sigma=0.0032  Rmin=1.0857  Rmax=1.0938     7
 C  C  Rav=1.5227 sigma=0.0016  Rmin=1.5211  Rmax=1.5243     2
 N  C  Rav=1.4584 sigma=0.0000  Rmin=1.4584  Rmax=1.4584     1
 O  N  Rav=1.2148 sigma=0.0027  Rmin=1.2121  Rmax=1.2176     2
 
 selected bond angles (degree)
 --------------------
H7-C1-C2=110.69                H8-C1-C2=110.04                H8-C1-H7=108.37                H9-C1-C2=110.69                
H9-C1-H7=108.60                H9-C1-H8=108.37                C3-C2-C1=110.58                H10-C2-C1=109.96               
H10-C2-C3=109.45               H11-C2-C1=109.96               H11-C2-C3=109.45               H11-C2-H10=107.39              
N4-C3-C2=112.79                H12-C3-C2=111.52               H12-C3-N4=106.80               H13-C3-C2=111.49               
H13-C3-N4=106.79               H13-C3-H12=107.11              O5-N4-C3=117.13                O6-N4-C3=119.20                
O6-N4-O5=123.68                
 
 selected dihedral angles (degree)
 ---------------------------------
C3-C2-C1-H7= 60.19            C3-C2-C1-H8=179.96            C3-C2-C1-H9=299.73            H10-C2-C1-H7=299.22           
H10-C2-C1-H8= 58.99           H10-C2-C1-H9=178.75           H11-C2-C1-H7=181.17           H11-C2-C1-H8=300.94           
H11-C2-C1-H9= 60.71           N4-C3-C2-C1=180.00            N4-C3-C2-H10=301.28           N4-C3-C2-H11= 58.72           
H12-C3-C2-C1=300.18           H12-C3-C2-H10= 61.46          H12-C3-C2-H11=178.90          H13-C3-C2-C1= 59.86           
H13-C3-C2-H10=181.13          H13-C3-C2-H11=298.58          O5-N4-C3-C2=179.77            O5-N4-C3-H12= 56.92           
O5-N4-C3-H13=302.58           O6-N4-C3-C2=359.76            O6-N4-C3-H12=236.90           O6-N4-C3-H13=122.57           
           -------------------------------------------------
          |                Final Singlepoint                |
           -------------------------------------------------

          ...................................................
          :                      SETUP                      :
          :.................................................:
          :  # basis functions                  31          :
          :  # atomic orbitals                  31          :
          :  # shells                           19          :
          :  # electrons                        36          :
          :  max. iterations                   250          :
          :  Hamiltonian                  GFN2-xTB          :
          :  restarted?                      false          :
          :  GBSA solvation                   true          :
          :  PC potential                    false          :
          :  electronic temp.          300.0000000     K    :
          :  accuracy                    1.0000000          :
          :  -> integral cutoff          0.2500000E+02      :
          :  -> integral neglect         0.1000000E-07      :
          :  -> SCF convergence          0.1000000E-05 Eh   :
          :  -> wf. convergence          0.1000000E-03 e    :
          :  Broyden damping             0.4000000          :
          :  net charge                          0          :
          :  unpaired electrons                  0          :
          ...................................................

 iter      E             dE          RMSdq      gap      omega  full diag
   1    -21.1538635 -0.211539E+02  0.399E-05    3.35       0.0  T
   2    -21.1538635 -0.119726E-11  0.231E-05    3.35    1198.6  T
   3    -21.1538635 -0.238032E-12  0.652E-06    3.35    4255.5  T

   *** convergence criteria satisfied after 3 iterations ***

         #    Occupation            Energy/Eh            Energy/eV
      -------------------------------------------------------------
         1        2.0000           -0.7831405             -21.3103
       ...           ...                  ...                  ...
        12        2.0000           -0.4861226             -13.2281
        13        2.0000           -0.4792182             -13.0402
        14        2.0000           -0.4780726             -13.0090
        15        2.0000           -0.4611904             -12.5496
        16        2.0000           -0.4528384             -12.3224
        17        2.0000           -0.4431150             -12.0578
        18        2.0000           -0.4360378             -11.8652 (HOMO)
        19                         -0.3128970              -8.5144 (LUMO)
        20                         -0.0191319              -0.5206
        21                          0.0940005               2.5579
        22                          0.1230264               3.3477
        23                          0.1274981               3.4694
       ...                                ...                  ...
        31                          0.4159735              11.3192
      -------------------------------------------------------------
                  HL-Gap            0.1231408 Eh            3.3508 eV
             Fermi-level           -0.3744674 Eh          -10.1898 eV

 SCC (total)                   0 d,  0 h,  0 min,  0.006 sec
 SCC setup                      ...        0 min,  0.001 sec ( 14.696%)
 Dispersion                     ...        0 min,  0.000 sec (  0.653%)
 classical contributions        ...        0 min,  0.000 sec (  0.238%)
 integral evaluation            ...        0 min,  0.001 sec ( 18.473%)
 iterations                     ...        0 min,  0.001 sec ( 15.825%)
 molecular gradient             ...        0 min,  0.003 sec ( 47.579%)
 printout                       ...        0 min,  0.000 sec (  2.289%)

         :::::::::::::::::::::::::::::::::::::::::::::::::::::
         ::                     SUMMARY                     ::
         :::::::::::::::::::::::::::::::::::::::::::::::::::::
         :: total energy             -20.962206085539 Eh    ::
         :: total w/o Gsasa/hb       -20.964001418189 Eh    ::
         :: gradient norm              0.000059765694 Eh/a0 ::
         :: HOMO-LUMO gap              3.350832479496 eV    ::
         ::.................................................::
         :: SCC energy               -21.153859737354 Eh    ::
         :: -> isotropic ES            0.065629729292 Eh    ::
         :: -> anisotropic ES          0.007344947428 Eh    ::
         :: -> anisotropic XC          0.003073554872 Eh    ::
         :: -> dispersion             -0.006361735848 Eh    ::
         :: -> Gsolv                  -0.011478326850 Eh    ::
         ::    -> Gelec               -0.013273659500 Eh    ::
         ::    -> Gsasa                0.003731398855 Eh    ::
         ::    -> Ghb                 -0.003016825904 Eh    ::
         ::    -> Gshift               0.001080759698 Eh    ::
         :: repulsion energy           0.191653651815 Eh    ::
         :: add. restraining           0.000000000000 Eh    ::
         :: total charge               0.000000000000 e     ::
         :::::::::::::::::::::::::::::::::::::::::::::::::::::

           ------------------------------------------------- 
          |                Numerical Hessian                |
           ------------------------------------------------- 
step length          :   0.00500
SCC accuracy         :   0.30000
Hessian scale factor :   1.00000
frozen atoms in %    :   0.00000    0
RMS gradient         :   0.00006
estimated CPU  time      0.01 min
estimated wall time      0.01 min

writing file <hessian>.

 projected vibrational frequencies (cm⁻¹)
eigval :       -0.00     0.00     0.00     0.00     0.00     0.00
eigval :       52.42    83.32   193.47   230.30   352.10   505.98
eigval :      578.89   704.03   773.95   882.42   923.21   973.64
eigval :     1090.78  1100.24  1142.98  1197.58  1253.11  1254.69
eigval :     1327.67  1346.93  1404.39  1413.71  1486.91  1493.46
eigval :     1495.69  1595.07  2959.02  2976.85  2995.03  3010.46
eigval :     3042.86  3046.48  3060.85
           -------------------------------------------------
          |                Property Printout                |
           -------------------------------------------------

    * Orbital Energies and Occupations

         #    Occupation            Energy/Eh            Energy/eV
      -------------------------------------------------------------
         1        2.0000           -0.7831405             -21.3103
       ...           ...                  ...                  ...
         6        2.0000           -0.6250522             -17.0085
         7        2.0000           -0.6007210             -16.3465
         8        2.0000           -0.5828597             -15.8604
         9        2.0000           -0.5674483             -15.4411
        10        2.0000           -0.5274031             -14.3514
        11        2.0000           -0.5012619             -13.6400
        12        2.0000           -0.4861226             -13.2281
        13        2.0000           -0.4792181             -13.0402
        14        2.0000           -0.4780726             -13.0090
        15        2.0000           -0.4611904             -12.5496
        16        2.0000           -0.4528384             -12.3224
        17        2.0000           -0.4431149             -12.0578
        18        2.0000           -0.4360378             -11.8652 (HOMO)
        19                         -0.3128969              -8.5144 (LUMO)
        20                         -0.0191319              -0.5206
        21                          0.0940005               2.5579
        22                          0.1230264               3.3477
        23                          0.1274981               3.4694
        24                          0.1478831               4.0241
        25                          0.1773075               4.8248
        26                          0.2087765               5.6811
        27                          0.2156997               5.8695
        28                          0.2498390               6.7985
        29                          0.2587392               7.0407
       ...                                ...                  ...
        31                          0.4159735              11.3192
      -------------------------------------------------------------
                  HL-Gap            0.1231408 Eh            3.3508 eV
             Fermi-level           -0.3744673 Eh          -10.1898 eV

     #   Z          covCN         q      C6AA      α(0)
     1   6 C        3.754    -0.125    22.959     6.832
     2   6 C        3.801    -0.062    21.700     6.632
     3   6 C        3.742    -0.080    22.112     6.709
     4   7 N        2.754     0.589    13.068     5.369
     5   8 O        0.929    -0.448    22.627     6.379
     6   8 O        0.928    -0.424    22.124     6.308
     7   1 H        0.925     0.053     2.288     2.365
     8   1 H        0.925     0.056     2.251     2.346
     9   1 H        0.925     0.053     2.288     2.365
    10   1 H        0.924     0.062     2.173     2.305
    11   1 H        0.924     0.062     2.172     2.305
    12   1 H        0.924     0.132     1.517     1.926
    13   1 H        0.924     0.133     1.516     1.925

 Mol. C6AA /au·bohr⁶  :       1374.048042
 Mol. C8AA /au·bohr⁸  :      28818.655384
 Mol. α(0) /au        :         53.767687


Wiberg/Mayer (AO) data.
largest (>0.10) Wiberg bond orders for each atom

 ---------------------------------------------------------------------------
     #   Z sym  total        # sym  WBO       # sym  WBO       # sym  WBO
 ---------------------------------------------------------------------------
     1   6 C    3.992 --     2 C    1.016     9 H    0.986     7 H    0.986
                             8 H    0.985
     2   6 C    3.987 --     1 C    1.016     3 C    1.010    10 H    0.973
                            11 H    0.973
     3   6 C    3.943 --     2 C    1.010     4 N    0.942    12 H    0.928
                            13 H    0.927
     4   7 N    3.904 --     6 O    1.474     5 O    1.452     3 C    0.942
     5   8 O    1.894 --     4 N    1.452     6 O    0.342
     6   8 O    1.922 --     4 N    1.474     5 O    0.342
     7   1 H    0.997 --     1 C    0.986
     8   1 H    0.996 --     1 C    0.985
     9   1 H    0.997 --     1 C    0.986
    10   1 H    0.996 --     2 C    0.973
    11   1 H    0.996 --     2 C    0.973
    12   1 H    0.982 --     3 C    0.928
    13   1 H    0.982 --     3 C    0.927
 ---------------------------------------------------------------------------

Topologies differ in total number of bonds
Writing topology from bond orders to xtbtopo.mol

molecular dipole:
                 x           y           z       tot (Debye)
 q only:       -2.039       0.561      -0.262
   full:       -1.997       0.596      -0.283       5.345
molecular quadrupole (traceless):
                xx          xy          yy          xz          yz          zz
 q only:       -3.675      -0.704       0.978       0.621       1.567       2.697
  q+dip:       -5.699      -0.928       1.088       0.898       3.155       4.611
   full:       -5.414      -0.843       0.954       0.836       3.138       4.460

           -------------------------------------------------
          |                Geometry Summary                 |
           -------------------------------------------------

      molecular mass/u    :       89.0933060
   center of mass at/Å    :       -0.0000288       0.0005960       0.0009934
  moments of inertia/u·Å² :        0.5177954E+02   0.2540707E+03   0.2964727E+03
rotational constants/cm⁻¹ :        0.3255655E+00   0.6635016E-01   0.5686066E-01

 * 12 selected distances

     #   Z          #   Z                                           value/Å
     1   6 C        2   6 C                                       1.5242543 (max)
     2   6 C        3   6 C                                       1.5211486
     3   6 C        4   7 N                                       1.4584020
     4   7 N        5   8 O                                       1.2175519
     4   7 N        6   8 O                                       1.2121227
     1   6 C        7   1 H                                       1.0866736
     1   6 C        8   1 H                                       1.0856957 (min)
     1   6 C        9   1 H                                       1.0866694
     2   6 C       10   1 H                                       1.0910132
     2   6 C       11   1 H                                       1.0910025
     3   6 C       12   1 H                                       1.0937288
     3   6 C       13   1 H                                       1.0937746

 * 4 distinct bonds (by element types)

   Z      Z             #   av. dist./Å        max./Å        min./Å
   1 H    6 C           7     1.0897940     1.0937746     1.0856957
   6 C    6 C           2     1.5227015     1.5242543     1.5211486
   6 C    7 N           1     1.4584020     1.4584020     1.4584020
   7 N    8 O           2     1.2148373     1.2175519     1.2121227

           -------------------------------------------------
          |               Frequency Printout                |
           -------------------------------------------------
 projected vibrational frequencies (cm⁻¹)
eigval :       -0.00     0.00     0.00     0.00     0.00     0.00
eigval :       52.42    83.32   193.47   230.30   352.10   505.98
eigval :      578.89   704.03   773.95   882.42   923.21   973.64
eigval :     1090.78  1100.24  1142.98  1197.58  1253.11  1254.69
eigval :     1327.67  1346.93  1404.39  1413.71  1486.91  1493.46
eigval :     1495.69  1595.07  2959.02  2976.85  2995.03  3010.46
eigval :     3042.86  3046.48  3060.85
 reduced masses (amu)
   1: 11.03   2: 12.63   3: 12.40   4: 13.78   5: 14.29   6: 10.61   7:  9.16   8:  8.72
   9: 11.61  10:  1.83  11: 10.75  12: 13.09  13: 10.13  14: 13.69  15:  3.37  16:  3.47
  17: 10.17  18:  7.83  19:  8.83  20:  4.95  21:  7.80  22:  4.33  23:  1.99  24:  4.15
  25:  8.37  26:  9.04  27:  4.51  28:  3.16  29:  1.80  30:  1.72  31:  1.52  32: 14.45
  33:  1.97  34:  1.50  35:  1.99  36:  1.50  37:  1.97  38:  1.66  39:  1.54
 IR intensities (km·mol⁻¹)
   1:  4.33   2:  0.88   3:  1.35   4:  0.27   5:  2.33   6:  1.99   7:  5.58   8: 10.02
   9:  5.35  10:  0.62  11:  1.56  12:  9.01  13: 14.31  14: 46.03  15: 41.25  16:  1.41
  17: 54.01  18:  8.86  19:  0.78  20:  4.01  21:  0.35  22:  0.99  23:  0.53  24: 19.88
  25:268.59  26:196.96  27: 41.79  28:  0.40  29:  2.09  30:  2.00  31:  4.32  32:791.03
  33:  3.75  34:  2.41  35: 25.36  36: 25.10  37: 61.83  38: 48.56  39: 33.51
 Raman intensities (Ä⁴*amu⁻¹)
   1:  0.00   2:  0.00   3:  0.00   4:  0.00   5:  0.00   6:  0.00   7:  0.00   8:  0.00
   9:  0.00  10:  0.00  11:  0.00  12:  0.00  13:  0.00  14:  0.00  15:  0.00  16:  0.00
  17:  0.00  18:  0.00  19:  0.00  20:  0.00  21:  0.00  22:  0.00  23:  0.00  24:  0.00
  25:  0.00  26:  0.00  27:  0.00  28:  0.00  29:  0.00  30:  0.00  31:  0.00  32:  0.00
  33:  0.00  34:  0.00  35:  0.00  36:  0.00  37:  0.00  38:  0.00  39:  0.00
 output can be read by thermo (or use thermo option).
 writing <g98.out> molden fake output.
 recommended (thermochemical) frequency scaling factor: 1.0
           -------------------------------------------------
          |             Thermodynamic Functions             |
           -------------------------------------------------

Molecule has the following symmetry elements: (sigma) 
It seems to be the Cs point group
cs  symmetry found (for desy threshold:  0.10E+00) used in thermo

          ...................................................
          :                      SETUP                      :
          :.................................................:
          :  # frequencies                          33      :
          :  # imaginary freq.                       0      :
          :  linear?                             false      :
          :  only rotor calc.                    false      :
          :  symmetry                               cs      :
          :  rotational number                       1      :
          :  scaling factor                  1.0000000      :
          :  rotor cutoff                    0.0000000 cm⁻¹ :
          :  imag. cutoff                 -100.0000000 cm⁻¹ :
          :.................................................:

    mode    ω/cm⁻¹     T·S(HO)/kcal·mol⁻¹    T·S(FR)/kcal·mol⁻¹   T·S(vib)
   ------------------------------------------------------------------------
       1     52.42    -1.40849 (100.00%)    -1.04210 (  0.00%)    -1.40849
       2     83.32    -1.13625 (100.00%)    -0.90496 (  0.00%)    -1.13625
       3    193.47    -0.65424 (100.00%)    -0.65558 (  0.00%)    -0.65424
       4    230.30    -0.55950 (100.00%)    -0.60397 (  0.00%)    -0.55950
   ------------------------------------------------------------------------

   temp. (K)  partition function   enthalpy   heat capacity  entropy
                                   cal/mol     cal/K/mol   cal/K/mol   J/K/mol
 298.15  VIB   53.6                 2476.459     16.499     16.219
         ROT  0.151E+06              888.752      2.981     26.677
         INT  0.809E+07             3365.211     19.480     42.896
         TR   0.814E+27             1481.254      4.968     39.356
         TOT                        4846.4653    24.4485    82.2522   344.1433

       T/K    H(0)-H(T)+PV         H(T)/Eh          T*S/Eh         G(T)/Eh
   ------------------------------------------------------------------------
    298.15    0.772333E-02    0.112402E+00    0.390807E-01    0.733210E-01
   ------------------------------------------------------------------------

         :::::::::::::::::::::::::::::::::::::::::::::::::::::
         ::                  THERMODYNAMIC                  ::
         :::::::::::::::::::::::::::::::::::::::::::::::::::::
         :: total free energy         -20.888885062077 Eh   ::
         ::.................................................::
         :: total energy              -20.962206085426 Eh   ::
         :: zero point energy           0.104678372625 Eh   ::
         :: G(RRHO) w/o ZPVE           -0.031357349276 Eh   ::
         :: G(RRHO) contrib.            0.073321023349 Eh   ::
         :::::::::::::::::::::::::::::::::::::::::::::::::::::

optimized geometry written to: xtbopt.coord


           -------------------------------------------------
          | TOTAL ENERGY              -20.962206085426 Eh   |
          | TOTAL ENTHALPY            -20.849804378796 Eh   |
          | TOTAL FREE ENERGY         -20.888885062077 Eh   |
          | GRADIENT NORM               0.000059720983 Eh/α |
          | HOMO-LUMO GAP               3.350832441231 eV   |
           -------------------------------------------------

------------------------------------------------------------------------
 * finished run on 2025/04/11 at 12:33:38.241     
------------------------------------------------------------------------
 total:
 * wall-time:     0 d,  0 h,  0 min,  0.626 sec
 *  cpu-time:     0 d,  0 h,  0 min,  0.529 sec
 * ratio c/w:     0.844 speedup
 SCF:
 * wall-time:     0 d,  0 h,  0 min,  0.028 sec
 *  cpu-time:     0 d,  0 h,  0 min,  0.009 sec
 * ratio c/w:     0.338 speedup
 ANC optimizer:
 * wall-time:     0 d,  0 h,  0 min,  0.084 sec
 *  cpu-time:     0 d,  0 h,  0 min,  0.063 sec
 * ratio c/w:     0.750 speedup
 analytical hessian:
 * wall-time:     0 d,  0 h,  0 min,  0.450 sec
 *  cpu-time:     0 d,  0 h,  0 min,  0.439 sec
 * ratio c/w:     0.977 speedup

