31
 energy: -829.592371069383 gnorm: 0.002264852374 xtb: 6.7.1 (edcfbbe)
C           -3.83706415224752        0.95244397954861       -1.62204682796503
C           -3.31638204008977       -0.09518585798592       -0.63503916415743
H           -3.55630732832796       -1.09639362866152       -1.00204569151357
C           -1.80925900437049       -0.02344064898084       -0.44521564489101
C           -1.18013052509395        1.15470724267309       -0.03200128320918
C            0.19717974566409        1.19746466491496        0.13111560068846
C            1.00787624391285        0.07685869081925       -0.10408157290918
C            0.34205223965833       -1.07708759049692       -0.51569266694964
C           -1.02805275804797       -1.15289945670360       -0.68647242068194
F            1.06631425156296       -2.18952855513060       -0.81011288136416
C            2.47328033733196        0.14212244848110        0.06301117900176
C            3.18189191624026       -0.88509802727487        0.70117973224143
C            4.55817487535058       -0.78896908162116        0.87662800692002
C            5.25031288225586        0.32917057362421        0.41628527827014
C            4.55474427352327        1.35571017231726       -0.21844590159210
C            3.17803732350527        1.26424957868626       -0.39378073886675
C           -3.96468833444681       -0.01176596784721        0.73207590160543
O           -4.18735082379380       -0.97947188379962        1.44048712199598
O           -4.24994157505862        1.24861389723936        1.11322161379518
H           -4.92664166573982        0.89578580514472       -1.70002372290684
H           -3.56387955770461        1.96542144973254       -1.31884252449594
H           -3.40880988062258        0.75935084913175       -2.60909668346936
H           -1.76599191028390        2.04464425081802        0.17168058874918
H            0.66812577584484        2.11595142991330        0.46716115971464
H           -1.47230292107199       -2.08494369340198       -1.02070760384772
H            2.65130677503860       -1.75069367565668        1.08255893384750
H            5.09082494191266       -1.58947729435723        1.38048230675393
H            6.32465332764055        0.40035304304910        0.55287525545529
H            5.08594491796839        2.22894550007549       -0.58424010285407
H            2.64414418672047        2.06124330682773       -0.90225808714271
H           -4.63438589043438        1.21837239390340        2.00694674767331
31
 energy: -829.592381395846 gnorm: 0.000815845713 xtb: 6.7.1 (edcfbbe)
C           -3.83774629957798        0.95279091090383       -1.62252729584226
C           -3.31709545005293       -0.09459903364368       -0.63550595932639
H           -3.55745512838576       -1.09579736205726       -1.00237105343459
C           -1.80962863427083       -0.02323198890954       -0.44616031531028
C           -1.18032593859544        1.15471153270047       -0.03249572857739
C            0.19689712283002        1.19724186867507        0.13132188067598
C            1.00769229281169        0.07651378637555       -0.10373620424383
C            0.34163887551512       -1.07705701961559       -0.51624885374394
C           -1.02859001001287       -1.15274603069826       -0.68746649584806
F            1.06602953036586       -2.18924964541933       -0.81068611423848
C            2.47323056045182        0.14162185725599        0.06387543380176
C            3.18236633813079       -0.88518722201708        0.70244541639270
C            4.55869941978925       -0.78877934961087        0.87742211819336
C            5.25063714376893        0.32914703140551        0.41622536494410
C            4.55472822329650        1.35530575873323       -0.21860048356640
C            3.17797289588083        1.26362498101292       -0.39343683590057
C           -3.96419805355392       -0.01143136800048        0.73250160883414
O           -4.18178545231068       -0.97876416343737        1.44161144756322
O           -4.25348666139996        1.24789859404048        1.11291816269320
H           -4.92710380066752        0.89490403255286       -1.70231091428065
H           -3.56605635585352        1.96601272549184       -1.31907407298603
H           -3.40766105741619        0.76051633334824       -2.60907761508075
H           -1.76626388098395        2.04457027467556        0.17095743935416
H            0.66772209922936        2.11562845665554        0.46776341275252
H           -1.47301071290452       -2.08456821808902       -1.02198910274204
H            2.65188293576864       -1.75069216349444        1.08420181810198
H            5.09171370349591       -1.58889335169551        1.38150728232174
H            6.32507160353696        0.40045907589803        0.55209598657101
H            5.08570950783158        2.22844154320383       -0.58490092008973
H            2.64387714558323        2.06029909327400       -0.90210467768748
H           -4.63178644144362        1.21776321200840        2.00945532939073
31
 energy: -829.592397061893 gnorm: 0.002164767768 xtb: 6.7.1 (edcfbbe)
C           -3.83984691611358        0.95473529059345       -1.62414895907974
C           -3.31896198401277       -0.09215085408619       -0.63754812363501
H           -3.56120171536173       -1.09319767474629       -1.00385967925222
C           -1.81059815926551       -0.02242976294618       -0.45000078291695
C           -1.18100928917164        1.15479306390506       -0.03434648358777
C            0.19585808423544        1.19639287920085        0.13220985371736
C            1.00670752447724        0.07514257953297       -0.10226547964817
C            0.34026717799374       -1.07728355700522       -0.51782089449035
C           -1.03016550360969       -1.15219062384346       -0.69144751158740
F            1.06507411218839       -2.18882201195859       -0.81217703720856
C            2.47258282516721        0.13980495421975        0.06675777002097
C            3.18310319127106       -0.88551329269530        0.70700751752832
C            4.55960309278712       -0.78813507637442        0.88044244395131
C            5.25093881967122        0.32892064517354        0.41603195636262
C            4.55401418234238        1.35366249730861       -0.21963661670000
C            3.17710247366443        1.26123797852561       -0.39276435305795
C           -3.95911433893016       -0.01067655092132        0.73490309018894
O           -4.15607355359790       -0.97771711858903        1.44862032469533
O           -4.26644040379570        1.24519277649483        1.11036030231214
H           -4.92838480807013        0.89128884736378       -1.71061068877923
H           -3.57488809108982        1.96895917102466       -1.31832844833827
H           -3.40326442290526        0.76682924954937       -2.60905058554076
H           -1.76734189191707        2.04442143263362        0.16863631979983
H            0.66631328717013        2.11425886271587        0.47054410583363
H           -1.47505179932804       -2.08323252153022       -1.02740264580242
H            2.65300451877246       -1.75046938732959        1.09076267426459
H            5.09377659351976       -1.58675422080479        1.38570784250307
H            6.32565786705310        0.40065268382561        0.54971952467283
H            5.08430573994413        2.22623659179667       -0.58819260806411
H            2.64226726779205        2.05678022336241       -0.90225349507000
H           -4.62455886000444        1.21571812776275        2.01577775195439
31
 energy: -829.592404306232 gnorm: 0.001340178327 xtb: 6.7.1 (edcfbbe)
C           -3.84040515334327        0.95570622516099       -1.62418676101522
C           -3.31893283235856       -0.09151607859428       -0.63849847775652
H           -3.56149231883037       -1.09253734853061       -1.00474153181682
C           -1.81054332719443       -0.02218384469951       -0.45137107212218
C           -1.18114994532143        1.15482629997735       -0.03484752418771
C            0.19560304606799        1.19615421721555        0.13259034240873
C            1.00628549940997        0.07482218691253       -0.10184763834520
C            0.34005633425760       -1.07741266745217       -0.51809466095001
C           -1.03024023184529       -1.15202251432515       -0.69270601669991
F            1.06492128184332       -2.18903030506735       -0.81208637042386
C            2.47210179182464        0.13943781991585        0.06738269747403
C            3.18253139927043       -0.88547188582951        0.70828929496147
C            4.55906509099446       -0.78800406274629        0.88145352608524
C            5.25041313821306        0.32864840003562        0.41605277298380
C            4.55347656523061        1.35298688425357       -0.22028388868157
C            3.17653542591373        1.26051126897921       -0.39304420160942
C           -3.95699260933202       -0.01066706042528        0.73502867045046
O           -4.14349343070750       -0.97742238329939        1.45264259065534
O           -4.27065898313292        1.24422231312960        1.10866001678078
H           -4.92867153093267        0.89014424222410       -1.71252270388462
H           -3.57806396182688        1.97015450829666       -1.31669185754080
H           -3.40198115032292        0.76996526870633       -2.60863936356809
H           -1.76765570916143        2.04437777246068        0.16827363335535
H            0.66603820680892        2.11380239962154        0.47154934385349
H           -1.47510598714800       -2.08286970336958       -1.02926282051412
H            2.65249979700300       -1.75017956754697        1.09273182243667
H            5.09332572221756       -1.58623713864833        1.38725166982692
H            6.32515365326820        0.40039103523210        0.54952670848401
H            5.08371588508154        2.22526310770930       -0.58963374885682
H            2.64159418239678        2.05569038028158       -0.90301289613285
H           -4.62425512269816        1.21490598578229        2.01567215503220
31
 energy: -829.592399939511 gnorm: 0.006009243168 xtb: 6.7.1 (edcfbbe)
C           -3.84332527843379        0.96202030398528       -1.62326639845038
C           -3.31775661119646       -0.08771364251426       -0.64363586081896
H           -3.56318812940432       -1.08825775864622       -1.00983118462065
C           -1.80942638935998       -0.02067199734295       -0.46015300357300
C           -1.18153048909051        1.15511471749663       -0.03837342658942
C            0.19457084015177        1.19500594919557        0.13393270903851
C            1.00402419554735        0.07324489391373       -0.10027127873311
C            0.33929440041146       -1.07816661328741       -0.52002867734010
C           -1.03000463560082       -1.15109440330741       -0.70058532874475
F            1.06442788419052       -2.19056329850823       -0.81131325040201
C            2.46925626762881        0.13759568617725        0.07014837608446
C            3.17822595821621       -0.88491638242963        0.71548661498470
C            4.55489418719433       -0.78734789197703        0.88778353998941
C            5.24678935530910        0.32663611811808        0.41665934103812
C            4.55049078641598        1.34862718722491       -0.22446242444919
C            3.17346232344522        1.25618348705438       -0.39581380192357
C           -3.93591557649012       -0.01050558938237        0.73930063629308
O           -4.06414814785159       -0.97503612924085        1.47852104539511
O           -4.29876410410726        1.23737816634956        1.09727938143188
H           -4.93012683348452        0.88441009691855       -1.72059690641714
H           -3.59578863246024        1.97721727526456       -1.30481134808186
H           -3.39586247574138        0.79030304595312       -2.60600157342800
H           -1.76916125103443        2.04399186825201        0.16636427118756
H            0.66503843320474        2.11121237259947        0.47680486301638
H           -1.47472266432632       -2.08099882122160       -1.04013907309180
H            2.64812410069625       -1.74780235448717        1.10403251303697
H            5.08899551040084       -1.58343723240310        1.39717678126890
H            6.32156807580784        0.39811006592071        0.54960212767347
H            5.08090274909801        2.21879826254867       -0.59862108204504
H            2.63826595077619        2.04914587554866       -0.90917101471804
H           -4.63493726483193        1.20797616899600        2.00965558391681
31
 energy: -829.592420955724 gnorm: 0.002213711624 xtb: 6.7.1 (edcfbbe)
C           -3.84196748601509        0.96014515701315       -1.62273370734838
C           -3.31756628825096       -0.08909392045254       -0.64145597109616
H           -3.56215753541034       -1.08962968671561       -1.00802135994661
C           -1.80934284903685       -0.02136097704387       -0.45701811942149
C           -1.18115551378776        1.15495168529265       -0.03724323208612
C            0.19520200009412        1.19556456162007        0.13298773676833
C            1.00501317403163        0.07403115285678       -0.10131828414078
C            0.33996032457717       -1.07794929053066       -0.51931783395069
C           -1.02957558958299       -1.15156339168316       -0.69769656056447
F            1.06501153260747       -2.19021474106118       -0.81134954940533
C            2.47032126317601        0.13853454677951        0.06852007201175
C            3.17923468093700       -0.88482843493381        0.71265925809109
C            4.55581284008577       -0.78754655601176        0.88573019608314
C            5.24780291489978        0.32719980625902        0.41670129220199
C            4.55172276050089        1.35001404558654       -0.22330105717493
C            3.17477752241132        1.25776928955334       -0.39564004152066
C           -3.94282609858796       -0.01071101416383        0.73767290523658
O           -4.09120274403808       -0.97523001825593        1.46958234243123
O           -4.28940008918738        1.23903515935511        1.10116116302523
H           -4.92931265172586        0.88706774875176       -1.71606010689855
H           -3.58891546666084        1.97475945710357       -1.30765118688644
H           -3.39850324946619        0.78388105304702       -2.60637076483592
H           -1.76841798352732        2.04400885736042        0.16713089195133
H            0.66575489311700        2.11226986661409        0.47436903832443
H           -1.47425337961507       -2.08191065995154       -1.03602299812941
H            2.64885433884674       -1.74812016815443        1.09983728575979
H            5.08953531348430       -1.58444641861757        1.39420445391334
H            6.32249886278762        0.39860071354173        0.55036322977532
H            5.08237429445156        2.22070475233805       -0.59584345823222
H            2.63990113066487        2.05144517889313       -0.90819161474076
H           -4.63550772284764        1.20908038455937        2.00997442503592
31
 energy: -829.592425013043 gnorm: 0.000801897558 xtb: 6.7.1 (edcfbbe)
C           -3.84177905659175        0.96019943501476       -1.62205149710662
C           -3.31752178470442       -0.08904242157260       -0.64059495702378
H           -3.56193375469162       -1.08949573200671       -1.00749216734361
C           -1.80919117471050       -0.02128467917201       -0.45658387006391
C           -1.18085682199247        1.15512518016229       -0.03740464566528
C            0.19559929096237        1.19596995770767        0.13210509508042
C            1.00549374096498        0.07446539247096       -0.10219286271227
C            0.34023122442640       -1.07767633000363       -0.51963848840831
C           -1.02941910651705       -1.15149905917387       -0.69730222971618
F            1.06528465191252       -2.18989459735568       -0.81175276352212
C            2.47081575662739        0.13881874408446        0.06772869470004
C            3.17938636189555       -0.88458492340261        0.71224045906765
C            4.55591254987566       -0.78756855266312        0.88590197989015
C            5.24824465284980        0.32703318406517        0.41709905940182
C            4.55260419205893        1.34987841318348       -0.22329223530429
C            3.17571270336087        1.25787561224929       -0.39627972771938
C           -3.94435472577763       -0.01121370263553        0.73765519183536
O           -4.09337754538769       -0.97524405152136        1.46895747767129
O           -4.29115415455887        1.23814989652902        1.10133441242945
H           -4.92928317313603        0.88828415832567       -1.71407130792789
H           -3.58724980649982        1.97451348546306       -1.30756075510970
H           -3.39941281400437        0.78316883056727       -2.60608639669106
H           -1.76804615913772        2.04414231766228        0.16696949854571
H            0.66628195850294        2.11277787050799        0.47300040396938
H           -1.47417270847417       -2.08198434394951       -1.03509254872049
H            2.64853284701788       -1.74765078696291        1.09924082193073
H            5.08919284750869       -1.58455175258053        1.39468162967186
H            6.32289988833065        0.39828689688233        0.55120120539248
H            5.08362188440453        2.22042128069563       -0.59562249752824
H            2.64118184106838        2.05153892808334       -0.90917685561277
H           -4.63957067421979        1.20749948515545        2.00973726064138
31
 energy: -829.592425013043 gnorm: 0.000801897558 xtb: 6.7.1 (edcfbbe)
C           -3.84177905659175        0.96019943501476       -1.62205149710662
C           -3.31752178470442       -0.08904242157260       -0.64059495702378
H           -3.56193375469162       -1.08949573200671       -1.00749216734361
C           -1.80919117471050       -0.02128467917201       -0.45658387006391
C           -1.18085682199247        1.15512518016229       -0.03740464566528
C            0.19559929096237        1.19596995770767        0.13210509508042
C            1.00549374096498        0.07446539247096       -0.10219286271227
C            0.34023122442640       -1.07767633000363       -0.51963848840831
C           -1.02941910651705       -1.15149905917387       -0.69730222971618
F            1.06528465191252       -2.18989459735568       -0.81175276352212
C            2.47081575662739        0.13881874408446        0.06772869470004
C            3.17938636189555       -0.88458492340261        0.71224045906765
C            4.55591254987566       -0.78756855266312        0.88590197989015
C            5.24824465284980        0.32703318406517        0.41709905940182
C            4.55260419205893        1.34987841318348       -0.22329223530429
C            3.17571270336087        1.25787561224929       -0.39627972771938
C           -3.94435472577763       -0.01121370263553        0.73765519183536
O           -4.09337754538769       -0.97524405152136        1.46895747767129
O           -4.29115415455887        1.23814989652902        1.10133441242945
H           -4.92928317313603        0.88828415832567       -1.71407130792789
H           -3.58724980649982        1.97451348546306       -1.30756075510970
H           -3.39941281400437        0.78316883056727       -2.60608639669106
H           -1.76804615913772        2.04414231766228        0.16696949854571
H            0.66628195850294        2.11277787050799        0.47300040396938
H           -1.47417270847417       -2.08198434394951       -1.03509254872049
H            2.64853284701788       -1.74765078696291        1.09924082193073
H            5.08919284750869       -1.58455175258053        1.39468162967186
H            6.32289988833065        0.39828689688233        0.55120120539248
H            5.08362188440453        2.22042128069563       -0.59562249752824
H            2.64118184106838        2.05153892808334       -0.90917685561277
H           -4.63957067421979        1.20749948515545        2.00973726064138
