20
 energy: -386.243432741983 gnorm: 0.006009896721 xtb: 6.7.1 (edcfbbe)
C           -2.35214610311130       -1.14747287836108       -0.57723102330871
C           -2.07886848149248       -0.49326540598966        0.77731948599617
C           -1.42577339524883        0.89208699076148        0.63749982338801
C           -0.15271055839966        0.82920681735070       -0.15911351463247
O            0.03429447237043        1.38967026647602       -1.23109134050531
O            0.77531105019671        0.06219922062863        0.44044529674880
C            2.03452827530578       -0.11918845634340       -0.28092415922788
C            2.90526119546920       -1.02072200094514        0.56089325769915
H           -2.98735085209398       -0.50685678216823       -1.20234707976911
H           -1.41912243440305       -1.33355753889938       -1.12489926510696
H           -2.85810563246983       -2.11098056745639       -0.45461021819007
H           -1.43523363690772       -1.14044197920805        1.38605088160911
H           -3.01768005261611       -0.36390080199033        1.32840406270516
H           -1.19711140294551        1.30096951200094        1.62947850773897
H           -2.09917085140605        1.58313968054071        0.12316849511856
H            1.80784302466455       -0.56286738355897       -1.25816704687064
H            2.49030021219368        0.86610705748261       -0.43500361067411
H            3.13041975959375       -0.56350902905412        1.53088436252399
H            2.42602264011148       -1.99208201087896        0.72579738483996
H            3.84926339548777       -1.19039971404346        0.03429385454634
20
 energy: -386.243478420968 gnorm: 0.001810495354 xtb: 6.7.1 (edcfbbe)
C           -2.35304122870712       -1.14740933832979       -0.57549795977100
C           -2.07969901481052       -0.49364872840673        0.77655902908756
C           -1.42563527490649        0.89091011638209        0.63569728820565
C           -0.15099578118655        0.83260792380181       -0.15798401634239
O            0.03537896194973        1.38970972341673       -1.22991237178391
O            0.77585382124629        0.06293700880749        0.43892207656279
C            2.03624937203403       -0.11940564093446       -0.28081382887185
C            2.90551994558830       -1.02042412049350        0.55942387044521
H           -2.98682394481775       -0.50772566226126       -1.20001944405496
H           -1.42162578040017       -1.33407391708310       -1.12393187973361
H           -2.86023560098565       -2.10898571981618       -0.45049508258283
H           -1.43728556046363       -1.14023446375229        1.38406777653803
H           -3.01751876297154       -0.36546620032127        1.32765971718679
H           -1.19723774244736        1.29899557843951        1.62695229572005
H           -2.09937522055077        1.58146135645015        0.12232628942748
H            1.81142435440970       -0.56116177735245       -1.25694348420632
H            2.49223225285668        0.86385840548799       -0.43315758326315
H            3.12590127371689       -0.56425744233928        1.52916973048357
H            2.42542068366397       -1.99000229628795        0.72240100307165
H            3.85146384106444       -1.18955028123880        0.03642455134304
20
 energy: -386.243480179560 gnorm: 0.002446853588 xtb: 6.7.1 (edcfbbe)
C           -2.35581896986809       -1.14776165696392       -0.57387446496623
C           -2.07966678392929       -0.49399983091697        0.77548553118688
C           -1.42435998289067        0.88968740600926        0.63464210113424
C           -0.15205108351889        0.82753259127039       -0.16195223950528
O            0.03727086704913        1.39097280399254       -1.22903440725420
O            0.77636817772168        0.06090520416824        0.43578005576254
C            2.03915169753561       -0.11785452869426       -0.28136270507844
C            2.90494139270058       -1.01925159076996        0.55940938641771
H           -2.98835789841995       -0.50837040844709       -1.19822794043693
H           -1.42618742507775       -1.33677727332744       -1.12342499503600
H           -2.86508644507859       -2.10736726163546       -0.44647586536402
H           -1.43835498538663       -1.14051576349788        1.38234137069589
H           -3.01584447504661       -0.36414703203138        1.32779956281839
H           -1.19368463080287        1.29637613238319        1.62532529059349
H           -2.09744097262268        1.58168065402779        0.12301669170705
H            1.81674317594639       -0.55767656489896       -1.25748391775796
H            2.49374839224294        0.86520987041267       -0.43049020003623
H            3.11957375059436       -0.56560224005349        1.53057134836147
H            2.42538222107762       -1.98889380579194        0.71789919161334
H            3.85364476151850       -1.18601376084601        0.04090368015072
20
 energy: -386.243488497214 gnorm: 0.001112000912 xtb: 6.7.1 (edcfbbe)
C           -2.35669487615053       -1.14815510140212       -0.57358261129393
C           -2.07948310337215       -0.49415530347739        0.77570463954450
C           -1.42400292683905        0.88943045433923        0.63417419432921
C           -0.15102109254116        0.82900676433762       -0.16162306965408
O            0.03775285903914        1.39123212899740       -1.22978827715883
O            0.77649453962591        0.06054764438027        0.43525235032511
C            2.03953391937529       -0.11756502666806       -0.28173025245457
C            2.90474253254286       -1.01941096067747        0.55957073449290
H           -2.98932231638643       -0.50844586810135       -1.19804563249375
H           -1.42727261285635       -1.33809559363430       -1.12349158285338
H           -2.86648350243138       -2.10760984954088       -0.44592306742853
H           -1.43782304252872       -1.14067660203215        1.38268957844226
H           -3.01551972674794       -0.36375831484677        1.32850070949296
H           -1.19340457471369        1.29650106706584        1.62485686439558
H           -2.09731331881321        1.58114239602286        0.12228648926988
H            1.81771170434883       -0.55656210904170       -1.25873175335324
H            2.49409727627314        0.86609647944409       -0.42947833556303
H            3.11803639442757       -0.56659457230015        1.53173804481109
H            2.42565416276977       -1.98983478103123        0.71630405937136
H            3.85428845433117       -1.18496021328474        0.04216430866467
20
 energy: -386.243493957033 gnorm: 0.000857482355 xtb: 6.7.1 (edcfbbe)
C           -2.35991719309259       -1.14911266731508       -0.57241772439792
C           -2.07933538763167       -0.49427711503606        0.77636787052512
C           -1.42342536485385        0.88894379774614        0.63221155148799
C           -0.14972092238267        0.83027806531470       -0.16295178707361
O            0.03895252835525        1.39161432119468       -1.23205530720402
O            0.77631448654800        0.05899703743704        0.43310516219095
C            2.04138597583472       -0.11637045540652       -0.28161486745796
C            2.90540322500069       -1.01997066599585        0.55971108427522
H           -2.99280145582529       -0.50842616082069       -1.19659130097531
H           -1.43156830100902       -1.34178613381000       -1.12383279870632
H           -2.87150159627752       -2.10778701561329       -0.44349273568363
H           -1.43650693687329       -1.14109007810480        1.38287912087653
H           -3.01435247288205       -0.36246218593552        1.33124935720877
H           -1.19209329780566        1.29704903738037        1.62266890982855
H           -2.09721345402995        1.58026332583113        0.12011830816110
H            1.82236463247194       -0.55251962750163       -1.26124517556358
H            2.49533431438760        0.86894208307440       -0.42492586795453
H            3.11284967357985       -0.57044653915322        1.53530034424956
H            2.42772760565552       -1.99267463633408        0.70988602121760
H            3.85807473405701       -1.18103324444490        0.04647684518272
20
 energy: -386.243497933581 gnorm: 0.000657512417 xtb: 6.7.1 (edcfbbe)
C           -2.36286998202056       -1.14977229192160       -0.57120721940245
C           -2.07927715711242       -0.49420131507075        0.77657481781020
C           -1.42281319820734        0.88848474697929        0.63054873064184
C           -0.14921647313043        0.82904111094167       -0.16484639609962
O            0.04033222074795        1.39175878237322       -1.23300648505615
O            0.77626220115424        0.05700571062377        0.43104896067589
C            2.04311614224179       -0.11507113828935       -0.28144286004017
C            2.90574241339778       -1.02012381505606        0.55982550871592
H           -2.99565648911798       -0.50859500303073       -1.19490270530713
H           -1.43553695520264       -1.34409844119099       -1.12369330566194
H           -2.87575046049941       -2.10754600783440       -0.44070649973241
H           -1.43585399005574       -1.14105762072669        1.38231857892600
H           -3.01324096096498       -0.36157712362512        1.33299767729992
H           -1.19076689906517        1.29746434040314        1.62046844540769
H           -2.09677368071012        1.57955637384825        0.11834181629234
H            1.82706215951240       -0.54873586114530       -1.26277528063451
H            2.49647726569585        0.87102666630041       -0.42091409026966
H            3.10819512299666       -0.57400419634565        1.53800308472605
H            2.42965267023358       -1.99443697183190        0.70434051788555
H            3.86088693120204       -1.17698822398746        0.04987335748443
20
 energy: -386.243497933581 gnorm: 0.000657512417 xtb: 6.7.1 (edcfbbe)
C           -2.36286998202056       -1.14977229192160       -0.57120721940245
C           -2.07927715711242       -0.49420131507075        0.77657481781020
C           -1.42281319820734        0.88848474697929        0.63054873064184
C           -0.14921647313043        0.82904111094167       -0.16484639609962
O            0.04033222074795        1.39175878237322       -1.23300648505615
O            0.77626220115424        0.05700571062377        0.43104896067589
C            2.04311614224179       -0.11507113828935       -0.28144286004017
C            2.90574241339778       -1.02012381505606        0.55982550871592
H           -2.99565648911798       -0.50859500303073       -1.19490270530713
H           -1.43553695520264       -1.34409844119099       -1.12369330566194
H           -2.87575046049941       -2.10754600783440       -0.44070649973241
H           -1.43585399005574       -1.14105762072669        1.38231857892600
H           -3.01324096096498       -0.36157712362512        1.33299767729992
H           -1.19076689906517        1.29746434040314        1.62046844540769
H           -2.09677368071012        1.57955637384825        0.11834181629234
H            1.82706215951240       -0.54873586114530       -1.26277528063451
H            2.49647726569585        0.87102666630041       -0.42091409026966
H            3.10819512299666       -0.57400419634565        1.53800308472605
H            2.42965267023358       -1.99443697183190        0.70434051788555
H            3.86088693120204       -1.17698822398746        0.04987335748443
