      -----------------------------------------------------------      
     |                   =====================                   |     
     |                           x T B                           |     
     |                   =====================                   |     
     |                         S. Grimme                         |     
     |          Mulliken Center for Theoretical Chemistry        |     
     |                    University of Bonn                     |     
      -----------------------------------------------------------      

   * xtb version 6.7.1 (edcfbbe) compiled by 'albert@albert-system' on 2024-07-22

   xtb is free software: you can redistribute it and/or modify it under
   the terms of the GNU Lesser General Public License as published by
   the Free Software Foundation, either version 3 of the License, or
   (at your option) any later version.
   
   xtb is distributed in the hope that it will be useful,
   but WITHOUT ANY WARRANTY; without even the implied warranty of
   MERCHANTABILITY or FITNESS FOR A PARTICULAR PURPOSE.  See the
   GNU Lesser General Public License for more details.
   
   Cite this work as:
   * C. Bannwarth, E. Caldeweyher, S. Ehlert, A. Hansen, P. Pracht,
     J. Seibert, S. Spicher, S. Grimme, WIREs Comput. Mol. Sci., 2020, 11,
     e01493. DOI: 10.1002/wcms.1493
   
   for GFN2-xTB:
   * C. Bannwarth, S. Ehlert and S. Grimme., J. Chem. Theory Comput., 2019,
     15, 1652-1671. DOI: 10.1021/acs.jctc.8b01176
   for GFN1-xTB:
   * S. Grimme, C. Bannwarth, P. Shushkov, J. Chem. Theory Comput., 2017,
     13, 1989-2009. DOI: 10.1021/acs.jctc.7b00118
   for GFN0-xTB:
   * P. Pracht, E. Caldeweyher, S. Ehlert, S. Grimme, ChemRxiv, 2019, preprint.
     DOI: 10.26434/chemrxiv.8326202.v1
   for GFN-FF:
   * S. Spicher and S. Grimme, Angew. Chem. Int. Ed., 2020, 59, 15665-15673.
     DOI: 10.1002/anie.202004239
   
   for ALPB and GBSA implicit solvation:
   * S. Ehlert, M. Stahn, S. Spicher, S. Grimme, J. Chem. Theory Comput.,
     2021, 17, 4250-4261. DOI: 10.1021/acs.jctc.1c00471
   
   for ddCOSMO and CPCM-X implicit solvation:
   * M. Stahn, S. Ehlert, S. Grimme, J. Phys. Chem. A,
     2023, XX, XXXX-XXXX. DOI: 10.1021/acs.jpca.3c04382
   
   for DFT-D4:
   * E. Caldeweyher, C. Bannwarth and S. Grimme, J. Chem. Phys., 2017,
     147, 034112. DOI: 10.1063/1.4993215
   * E. Caldeweyher, S. Ehlert, A. Hansen, H. Neugebauer, S. Spicher,
     C. Bannwarth and S. Grimme, J. Chem. Phys., 2019, 150, 154122.
     DOI: 10.1063/1.5090222
   * E. Caldeweyher, J.-M. Mewes, S. Ehlert and S. Grimme, Phys. Chem. Chem. Phys.
     2020, 22, 8499-8512. DOI: 10.1039/D0CP00502A
   
   for sTDA-xTB:
   * S. Grimme and C. Bannwarth, J. Chem. Phys., 2016, 145, 054103.
     DOI: 10.1063/1.4959605
   
   in the mass-spec context:
   * V. Asgeirsson, C. Bauer and S. Grimme, Chem. Sci., 2017, 8, 4879.
     DOI: 10.1039/c7sc00601b
   * J. Koopman and S. Grimme, ACS Omega 2019, 4, 12, 15120-15133.
     DOI: 10.1021/acsomega.9b02011
   
   for metadynamics refer to:
   * S. Grimme, J. Chem. Theory Comput., 2019, 155, 2847-2862
     DOI: 10.1021/acs.jctc.9b00143
   
   for SPH calculations refer to:
   * S. Spicher and S. Grimme, J. Chem. Theory Comput., 2021, 17, 1701-1714
     DOI: 10.1021/acs.jctc.0c01306
   
   for ONIOM refer to:
   * C. Plett, A. Katbashev, S. Ehlert, S. Grimme, M. Bursch,
     Phys. Chem. Chem. Phys., 2023, 25, 17860-17868. DOI: 10.1039/D3CP02178E
   
   for DIPRO refer to:
   * J. Kohn, N. Gildemeister, S. Grimme, D. Fazzi, A. Hansen,
     J. Chem. Phys., 2023, just accepted.
   
   for PTB refer to:
   * S. Grimme, M. Mueller, A. Hansen, J. Chem. Phys., 2023, 158, 124111.
     DOI: 10.1063/5.0137838
   
   with help from (in alphabetical order)
   P. Atkinson, C. Bannwarth, F. Bohle, G. Brandenburg, E. Caldeweyher
   M. Checinski, S. Dohm, S. Ehlert, S. Ehrlich, I. Gerasimov, C. Hölzer
   A. Katbashev, J. Kohn, J. Koopman, C. Lavigne, S. Lehtola, F. März, M. Müller,
   F. Musil, H. Neugebauer, J. Pisarek, C. Plett, P. Pracht, F. Pultar,
   J. Seibert, P. Shushkov, S. Spicher, M. Stahn, M. Steiner, T. Strunk,
   J. Stückrath, T. Rose, and J. Unsleber
   
 * started run on 2025/04/11 at 16:44:01.634     
   ID    Z sym.   atoms
    1    6 C      1-4, 7, 8
    2    8 O      5, 6
    3    1 H      9-20

           -------------------------------------------------
          |                Calculation Setup                |
           -------------------------------------------------

          program call               : /srv/scratch/z5358697/.xtb/bin/xtb xtb_rrho.coord --gfn2 --bhess vtight --chrg 0 --enso --norestart -I rrho-xcontrol-inp --parallel 1 --alpb water
          hostname                   : k061
          coordinate file            : xtb_rrho.coord
          omp threads                :                     1


           -------------------------------------------------
          |                 G F N 2 - x T B                 |
           -------------------------------------------------

        Reference                      10.1021/acs.jctc.8b01176
      * Hamiltonian:
        H0-scaling (s, p, d)           1.850000    2.230000    2.230000
        zeta-weighting                 0.500000
      * Dispersion:
        s8                             2.700000
        a1                             0.520000
        a2                             5.000000
        s9                             5.000000
      * Repulsion:
        kExp                           1.500000    1.000000
        rExp                           1.000000
      * Coulomb:
        alpha                          2.000000
        third order                    shell-resolved
        anisotropic                    true
        a3                             3.000000
        a5                             4.000000
        cn-shift                       1.200000
        cn-exp                         4.000000
        max-rad                        5.000000

      * Solvation model:               ALPB
        Solvent                        water
        Parameter file                 internal GFN2-xTB/ALPB
        Dielectric constant                8.0200E+01
        Reference state                gsolv [1 M gas/solution]
        Free energy shift                  1.0808E-03 Eh       6.7819E-01 kcal/mol
        Temperature                        2.9815E+02 K
        Density                            1.0000E+00 kg/L
        Solvent mass                       1.8000E+01 g/mol
        Interaction kernel             P16
        Born radius scaling (c1)           1.4744E+00
        Born radii integrator          GBOBC
        Born offset                        0.0000E+00 a0       0.0000E+00 AA
        H-bond correction              true
        Ion screening                  false
        Surface tension                    1.0000E-05 Eh       1.5569E+01 dyn/cm
        Grid points                               974 per atom

          ...................................................
          :                      SETUP                      :
          :.................................................:
          :  # basis functions                  44          :
          :  # atomic orbitals                  44          :
          :  # shells                           28          :
          :  # electrons                        48          :
          :  max. iterations                   250          :
          :  Hamiltonian                  GFN2-xTB          :
          :  restarted?                      false          :
          :  GBSA solvation                   true          :
          :  PC potential                    false          :
          :  electronic temp.          300.0000000     K    :
          :  accuracy                    1.0000000          :
          :  -> integral cutoff          0.2500000E+02      :
          :  -> integral neglect         0.1000000E-07      :
          :  -> SCF convergence          0.1000000E-05 Eh   :
          :  -> wf. convergence          0.1000000E-03 e    :
          :  Broyden damping             0.4000000          :
          :  net charge                          0          :
          :  unpaired electrons                  0          :
          ...................................................

 iter      E             dE          RMSdq      gap      omega  full diag
   1    -27.3598904 -0.273599E+02  0.390E+00    5.64       0.0  T
   2    -27.4215438 -0.616534E-01  0.194E+00    4.70       1.0  T
   3    -27.4235579 -0.201408E-02  0.102E+00    5.05       1.0  T
   4    -27.4251995 -0.164160E-02  0.161E-01    4.80       1.0  T
   5    -27.4254139 -0.214439E-03  0.679E-02    4.86       1.0  T
   6    -27.4254158 -0.188385E-05  0.241E-02    4.85       1.0  T
   7    -27.4254166 -0.800245E-06  0.403E-03    4.85       5.5  T
   8    -27.4254166 -0.288331E-07  0.233E-03    4.85       9.6  T
   9    -27.4254167 -0.921305E-08  0.405E-04    4.85      55.2  T
  10    -27.4254167 -0.458037E-09  0.216E-04    4.85     103.4  T

   *** convergence criteria satisfied after 10 iterations ***

         #    Occupation            Energy/Eh            Energy/eV
      -------------------------------------------------------------
         1        2.0000           -0.7439485             -20.2439
       ...           ...                  ...                  ...
        18        2.0000           -0.4667314             -12.7004
        19        2.0000           -0.4524283             -12.3112
        20        2.0000           -0.4488276             -12.2132
        21        2.0000           -0.4468542             -12.1595
        22        2.0000           -0.4455728             -12.1247
        23        2.0000           -0.4349529             -11.8357
        24        2.0000           -0.4199818             -11.4283 (HOMO)
        25                         -0.2417150              -6.5774 (LUMO)
        26                         -0.0283830              -0.7723
        27                          0.0873285               2.3763
        28                          0.1035313               2.8172
        29                          0.1171060               3.1866
       ...                                ...                  ...
        44                          0.5885714              16.0158
      -------------------------------------------------------------
                  HL-Gap            0.1782668 Eh            4.8509 eV
             Fermi-level           -0.3308484 Eh           -9.0028 eV

 SCC (total)                   0 d,  0 h,  0 min,  0.060 sec
 SCC setup                      ...        0 min,  0.002 sec (  2.657%)
 Dispersion                     ...        0 min,  0.000 sec (  0.222%)
 classical contributions        ...        0 min,  0.000 sec (  0.048%)
 integral evaluation            ...        0 min,  0.002 sec (  3.520%)
 iterations                     ...        0 min,  0.051 sec ( 85.444%)
 molecular gradient             ...        0 min,  0.005 sec (  7.862%)
 printout                       ...        0 min,  0.000 sec (  0.222%)

         :::::::::::::::::::::::::::::::::::::::::::::::::::::
         ::                     SUMMARY                     ::
         :::::::::::::::::::::::::::::::::::::::::::::::::::::
         :: total energy             -27.121378837893 Eh    ::
         :: total w/o Gsasa/hb       -27.121378554772 Eh    ::
         :: gradient norm              0.033894642253 Eh/a0 ::
         :: HOMO-LUMO gap              4.850886942910 eV    ::
         ::.................................................::
         :: SCC energy               -27.425402481429 Eh    ::
         :: -> isotropic ES            0.059558068728 Eh    ::
         :: -> anisotropic ES          0.001426791729 Eh    ::
         :: -> anisotropic XC          0.008745345014 Eh    ::
         :: -> dispersion             -0.011716138065 Eh    ::
         :: -> Gsolv                  -0.008974980646 Eh    ::
         ::    -> Gelec               -0.008974697525 Eh    ::
         ::    -> Gsasa                0.001101584091 Eh    ::
         ::    -> Ghb                 -0.002182626910 Eh    ::
         ::    -> Gshift               0.001080759698 Eh    ::
         :: repulsion energy           0.304023643537 Eh    ::
         :: add. restraining           0.000000000000 Eh    ::
         :: total charge              -0.000000000000 e     ::
         :::::::::::::::::::::::::::::::::::::::::::::::::::::

metadynamics with 1 initial structures loaded
           -------------------------------------------------
          |           Optimal kpush determination           |
           -------------------------------------------------
      ----------------------------------------------------------- 
     |                   =====================                   |
     |                        A N C O P T                        |
     |                   =====================                   |
     |               Approximate Normal Coordinate               |
     |                Rational Function Optimizer                |
      ----------------------------------------------------------- 
target rmsd / Å         0.100000
unbiased initial rmsd   0.056191
 
iter. min.        max.        rmsd       kpush
final kpush:  0.000000
           -------------------------------------------------
          |            Biased Numerical Hessian             |
           -------------------------------------------------
kpush                :   0.00000
alpha                :   1.00000
step length          :   0.00500
SCC accuracy         :   0.30000
Hessian scale factor :   1.00000
frozen atoms in %    :   0.00000    0
RMS gradient         :   0.00005
estimated CPU  time      0.02 min
estimated wall time      0.02 min

writing file <hessian>.

 projected vibrational frequencies (cm⁻¹)
eigval :       -0.00    -0.00    -0.00    -0.00     0.00     0.00
eigval :       10.19    47.26    81.23   114.72   169.95   205.26
eigval :      251.99   298.60   357.29   377.62   479.89   582.02
eigval :      666.76   799.45   826.41   877.57   908.15   917.23
eigval :      961.84  1049.44  1070.88  1081.32  1096.48  1122.81
eigval :     1140.36  1167.45  1190.44  1247.55  1252.95  1307.27
eigval :     1319.66  1337.97  1394.15  1411.54  1427.62  1430.70
eigval :     1470.86  1474.64  1485.23  1496.05  1502.36  1701.26
eigval :     2945.77  2971.19  2984.44  2991.34  2997.34  3009.58
eigval :     3022.93  3033.79  3038.97  3045.68  3049.65  3062.72
           -------------------------------------------------
          |                Property Printout                |
           -------------------------------------------------

    * Orbital Energies and Occupations

         #    Occupation            Energy/Eh            Energy/eV
      -------------------------------------------------------------
         1        2.0000           -0.7492679             -20.3886
       ...           ...                  ...                  ...
        12        2.0000           -0.5202955             -14.1580
        13        2.0000           -0.5159612             -14.0400
        14        2.0000           -0.5008729             -13.6294
        15        2.0000           -0.4947510             -13.4629
        16        2.0000           -0.4909351             -13.3590
        17        2.0000           -0.4791873             -13.0394
        18        2.0000           -0.4679273             -12.7330
        19        2.0000           -0.4511104             -12.2753
        20        2.0000           -0.4469952             -12.1634
        21        2.0000           -0.4463481             -12.1457
        22        2.0000           -0.4454317             -12.1208
        23        2.0000           -0.4356672             -11.8551
        24        2.0000           -0.4199057             -11.4262 (HOMO)
        25                         -0.2367212              -6.4415 (LUMO)
        26                         -0.0049601              -0.1350
        27                          0.0974431               2.6516
        28                          0.1115094               3.0343
        29                          0.1188032               3.2328
        30                          0.1279416               3.4815
        31                          0.1498920               4.0788
        32                          0.1539966               4.1905
        33                          0.1587662               4.3202
        34                          0.1644763               4.4756
        35                          0.1795519               4.8859
       ...                                ...                  ...
        44                          0.6199634              16.8701
      -------------------------------------------------------------
                  HL-Gap            0.1831845 Eh            4.9847 eV
             Fermi-level           -0.3283135 Eh           -8.9339 eV

     #   Z          covCN         q      C6AA      α(0)
     1   6 C        3.752    -0.112    22.711     6.796
     2   6 C        3.802    -0.058    21.612     6.619
     3   6 C        3.804    -0.102    22.441     6.744
     4   6 C        2.712     0.367    20.772     7.460
     5   8 O        0.856    -0.484    23.442     6.491
     6   8 O        1.703    -0.276    18.585     5.820
     7   6 C        3.693     0.068    19.606     6.336
     8   6 C        3.750    -0.127    23.004     6.840
     9   1 H        0.925     0.048     2.344     2.394
    10   1 H        0.925     0.047     2.353     2.399
    11   1 H        0.925     0.028     2.615     2.529
    12   1 H        0.924     0.048     2.345     2.395
    13   1 H        0.925     0.056     2.242     2.342
    14   1 H        0.924     0.089     1.886     2.148
    15   1 H        0.925     0.080     1.983     2.202
    16   1 H        0.924     0.058     2.227     2.334
    17   1 H        0.924     0.081     1.971     2.195
    18   1 H        0.925     0.066     2.129     2.282
    19   1 H        0.925     0.052     2.291     2.367
    20   1 H        0.925     0.071     2.077     2.254

 Mol. C6AA /au·bohr⁶  :       2997.537941
 Mol. C8AA /au·bohr⁸  :      63836.409049
 Mol. α(0) /au        :         80.945857


Wiberg/Mayer (AO) data.
largest (>0.10) Wiberg bond orders for each atom

 ---------------------------------------------------------------------------
     #   Z sym  total        # sym  WBO       # sym  WBO       # sym  WBO
 ---------------------------------------------------------------------------
     1   6 C    3.996 --     2 C    1.021    11 H    0.988    10 H    0.986
                             9 H    0.986
     2   6 C    3.993 --     1 C    1.021     3 C    0.995    12 H    0.977
                            13 H    0.976
     3   6 C    3.989 --     2 C    0.995     4 C    0.979    15 H    0.969
                            14 H    0.941
     4   6 C    3.903 --     5 O    1.697     6 O    1.163     3 C    0.979
     5   8 O    1.977 --     4 C    1.697     6 O    0.170
     6   8 O    2.313 --     4 C    1.163     7 C    0.920     5 O    0.170
     7   6 C    3.912 --     8 C    1.014    16 H    0.970    17 H    0.969
                             6 O    0.920
     8   6 C    3.989 --     7 C    1.014    19 H    0.986    18 H    0.985
                            20 H    0.980
     9   1 H    0.998 --     1 C    0.986
    10   1 H    0.998 --     1 C    0.986
    11   1 H    0.999 --     1 C    0.988
    12   1 H    0.998 --     2 C    0.977
    13   1 H    0.996 --     2 C    0.976
    14   1 H    0.992 --     3 C    0.941
    15   1 H    0.994 --     3 C    0.969
    16   1 H    0.997 --     7 C    0.970
    17   1 H    0.993 --     7 C    0.969
    18   1 H    0.996 --     8 C    0.985
    19   1 H    0.997 --     8 C    0.986
    20   1 H    0.994 --     8 C    0.980
 ---------------------------------------------------------------------------

Topologies differ in total number of bonds
Writing topology from bond orders to xtbtopo.mol

molecular dipole:
                 x           y           z       tot (Debye)
 q only:        0.221      -0.935       0.443
   full:        0.238      -0.944       0.457       2.732
molecular quadrupole (traceless):
                xx          xy          yy          xz          yz          zz
 q only:        9.204       1.549      -5.851       1.726       3.327      -3.353
  q+dip:        7.088       1.607      -4.824       1.892       3.511      -2.264
   full:        7.553       1.465      -5.481       1.478       4.178      -2.072

           -------------------------------------------------
          |                Geometry Summary                 |
           -------------------------------------------------

      molecular mass/u    :      116.1585142
   center of mass at/Å    :        0.0000722       0.0004009       0.0002727
  moments of inertia/u·Å² :        0.1026619E+03   0.5126703E+03   0.5205077E+03
rotational constants/cm⁻¹ :        0.1642054E+00   0.3288201E-01   0.3238690E-01

 * 18 selected distances

     #   Z          #   Z                                           value/Å
     1   6 C        2   6 C                                       1.5239758
     2   6 C        3   6 C                                       1.5299554 (max)
     4   6 C        5   8 O                                       1.2130618
     4   6 C        6   8 O                                       1.3284886
     6   8 O        7   6 C                                       1.4374485
     7   6 C        8   6 C                                       1.5210054
     1   6 C        9   1 H                                       1.0866428
     1   6 C       10   1 H                                       1.0874407
     1   6 C       11   1 H                                       1.0884613
     2   6 C       12   1 H                                       1.0915721
     2   6 C       13   1 H                                       1.0901905
     3   6 C       14   1 H                                       1.0921521
     3   6 C       15   1 H                                       1.0895327
     7   6 C       16   1 H                                       1.0943373
     7   6 C       17   1 H                                       1.0903506
     8   6 C       18   1 H                                       1.0866262
     8   6 C       19   1 H                                       1.0878035
     8   6 C       20   1 H                                       1.0850739 (min)

 * 3 distinct bonds (by element types)

   Z      Z             #   av. dist./Å        max./Å        min./Å
   1 H    6 C          12     1.0891820     1.0943373     1.0850739
   6 C    6 C           3     1.5249789     1.5299554     1.5210054
   6 C    8 O           3     1.3263330     1.4374485     1.2130618

           -------------------------------------------------
          |               Frequency Printout                |
           -------------------------------------------------
 projected vibrational frequencies (cm⁻¹)
eigval :       -0.00    -0.00    -0.00    -0.00     0.00     0.00
eigval :       10.19    47.26    81.23   114.72   169.95   205.26
eigval :      251.99   298.60   357.29   377.62   479.89   582.02
eigval :      666.76   799.45   826.41   877.57   908.15   917.23
eigval :      961.84  1049.44  1070.88  1081.32  1096.48  1122.81
eigval :     1140.36  1167.45  1190.44  1247.55  1252.95  1307.27
eigval :     1319.66  1337.97  1394.15  1411.54  1427.62  1430.70
eigval :     1470.86  1474.64  1485.23  1496.05  1502.36  1701.26
eigval :     2945.77  2971.19  2984.44  2991.34  2997.34  3009.58
eigval :     3022.93  3033.79  3038.97  3045.68  3049.65  3062.72
 reduced masses (amu)
   1: 11.08   2: 12.02   3: 10.74   4: 11.62   5: 10.63   6: 10.52   7: 10.52   8:  9.55
   9:  9.92  10:  9.53  11:  6.49  12:  2.98  13:  4.68  14:  9.04  15: 10.25  16:  8.57
  17: 10.52  18: 10.62  19: 10.33  20:  4.13  21:  3.92  22:  7.90  23:  8.17  24:  7.54
  25:  7.57  26:  7.84  27:  6.95  28:  4.35  29:  7.54  30:  9.21  31:  7.65  32:  8.05
  33:  5.92  34:  3.33  35:  3.11  36:  3.91  37:  4.49  38:  4.81  39:  3.12  40:  3.17
  41:  2.00  42:  2.02  43:  1.51  44:  1.93  45:  1.57  46:  1.55  47:  1.56  48: 13.31
  49:  1.72  50:  1.77  51:  1.93  52:  1.74  53:  1.52  54:  1.73  55:  1.89  56:  1.77
  57:  1.80  58:  1.50  59:  1.63  60:  1.75
 IR intensities (km·mol⁻¹)
   1:  0.19   2:  0.09   3:  0.12   4:  0.19   5:  0.39   6:  2.52   7:  2.10   8:  2.13
   9:  0.89  10:  2.49  11:  2.52  12:  3.23  13:  0.91  14: 18.93  15:  6.13  16:  2.47
  17:  5.09  18: 15.82  19: 11.14  20: 22.18  21: 13.08  22: 18.21  23: 11.47  24:  0.59
  25:  4.19  26: 16.59  27: 49.76  28:  9.04  29: 15.60  30: 91.89  31:211.57  32:180.41
  33: 60.22  34:  5.59  35: 29.68  36: 33.02  37: 44.15  38: 15.03  39:  5.71  40:  2.00
  41:  8.24  42:  4.12  43:  5.97  44:  1.05  45:  2.18  46:  2.82  47:  0.56  48:623.94
  49: 30.86  50:  8.78  51: 29.29  52: 16.01  53: 41.92  54: 27.13  55: 93.91  56: 68.52
  57: 37.68  58: 42.90  59: 26.21  60: 23.20
 Raman intensities (Ä⁴*amu⁻¹)
   1:  0.00   2:  0.00   3:  0.00   4:  0.00   5:  0.00   6:  0.00   7:  0.00   8:  0.00
   9:  0.00  10:  0.00  11:  0.00  12:  0.00  13:  0.00  14:  0.00  15:  0.00  16:  0.00
  17:  0.00  18:  0.00  19:  0.00  20:  0.00  21:  0.00  22:  0.00  23:  0.00  24:  0.00
  25:  0.00  26:  0.00  27:  0.00  28:  0.00  29:  0.00  30:  0.00  31:  0.00  32:  0.00
  33:  0.00  34:  0.00  35:  0.00  36:  0.00  37:  0.00  38:  0.00  39:  0.00  40:  0.00
  41:  0.00  42:  0.00  43:  0.00  44:  0.00  45:  0.00  46:  0.00  47:  0.00  48:  0.00
  49:  0.00  50:  0.00  51:  0.00  52:  0.00  53:  0.00  54:  0.00  55:  0.00  56:  0.00
  57:  0.00  58:  0.00  59:  0.00  60:  0.00
 output can be read by thermo (or use thermo option).
 writing <g98.out> molden fake output.
 recommended (thermochemical) frequency scaling factor: 1.0
           -------------------------------------------------
          |             Thermodynamic Functions             |
           -------------------------------------------------

Molecule has no symmetry elements
It seems to be the C1 point group
c1  symmetry found (for desy threshold:  0.10E+00) used in thermo

          ...................................................
          :                      SETUP                      :
          :.................................................:
          :  # frequencies                          54      :
          :  # imaginary freq.                       0      :
          :  linear?                             false      :
          :  only rotor calc.                    false      :
          :  symmetry                               c1      :
          :  rotational number                       1      :
          :  scaling factor                  1.0000000      :
          :  rotor cutoff                    0.0000000 cm⁻¹ :
          :  imag. cutoff                 -100.0000000 cm⁻¹ :
          :.................................................:

    mode    ω/cm⁻¹     T·S(HO)/kcal·mol⁻¹    T·S(FR)/kcal·mol⁻¹   T·S(vib)
   ------------------------------------------------------------------------
       1     10.19    -2.37716 (100.00%)    -1.52638 (  0.00%)    -2.37716
       2     47.26    -1.46951 (100.00%)    -1.07295 (  0.00%)    -1.46951
       3     81.23    -1.15111 (100.00%)    -0.91262 (  0.00%)    -1.15111
       4    114.72    -0.95032 (100.00%)    -0.81041 (  0.00%)    -0.95032
       5    169.95    -0.72629 (100.00%)    -0.69402 (  0.00%)    -0.72629
       6    205.26    -0.62177 (100.00%)    -0.63812 (  0.00%)    -0.62177
       7    251.99    -0.51181 (100.00%)    -0.57737 (  0.00%)    -0.51181
       8    298.60    -0.42478 (100.00%)    -0.52710 (  0.00%)    -0.42478
   ------------------------------------------------------------------------

   temp. (K)  partition function   enthalpy   heat capacity  entropy
                                   cal/mol     cal/K/mol   cal/K/mol   J/K/mol
 298.15  VIB  0.810E+04             4510.655     28.282     33.013
         ROT  0.400E+06              888.752      2.981     28.614
         INT  0.324E+10             5399.407     31.263     61.627
         TR   0.121E+28             1481.254      4.968     40.146
         TOT                        6880.6613    36.2313   101.7730   425.8181

       T/K    H(0)-H(T)+PV         H(T)/Eh          T*S/Eh         G(T)/Eh
   ------------------------------------------------------------------------
    298.15    0.109650E-01    0.182433E+00    0.483556E-01    0.134078E+00
   ------------------------------------------------------------------------

         :::::::::::::::::::::::::::::::::::::::::::::::::::::
         ::                  THERMODYNAMIC                  ::
         :::::::::::::::::::::::::::::::::::::::::::::::::::::
         :: total free energy         -26.988874886317 Eh   ::
         ::.................................................::
         :: total energy              -27.122952504720 Eh   ::
         :: zero point energy           0.171468209020 Eh   ::
         :: G(RRHO) w/o ZPVE           -0.037390590617 Eh   ::
         :: G(RRHO) contrib.            0.134077618402 Eh   ::
         :::::::::::::::::::::::::::::::::::::::::::::::::::::

optimized geometry written to: xtbopt.coord


           -------------------------------------------------
          | TOTAL ENERGY              -27.122952504720 Eh   |
          | TOTAL ENTHALPY            -26.940519263907 Eh   |
          | TOTAL FREE ENERGY         -26.988874886317 Eh   |
          | GRADIENT NORM               0.000051569829 Eh/α |
          | HOMO-LUMO GAP               4.984703772125 eV   |
           -------------------------------------------------

------------------------------------------------------------------------
 * finished run on 2025/04/11 at 16:44:03.405     
------------------------------------------------------------------------
 total:
 * wall-time:     0 d,  0 h,  0 min,  1.770 sec
 *  cpu-time:     0 d,  0 h,  0 min,  1.490 sec
 * ratio c/w:     0.842 speedup
 SCF:
 * wall-time:     0 d,  0 h,  0 min,  0.060 sec
 *  cpu-time:     0 d,  0 h,  0 min,  0.016 sec
 * ratio c/w:     0.264 speedup
 analytical hessian:
 * wall-time:     0 d,  0 h,  0 min,  1.335 sec
 *  cpu-time:     0 d,  0 h,  0 min,  1.201 sec
 * ratio c/w:     0.900 speedup

