      -----------------------------------------------------------      
     |                   =====================                   |     
     |                           x T B                           |     
     |                   =====================                   |     
     |                         S. Grimme                         |     
     |          Mulliken Center for Theoretical Chemistry        |     
     |                    University of Bonn                     |     
      -----------------------------------------------------------      

   * xtb version 6.7.1 (edcfbbe) compiled by 'albert@albert-system' on 2024-07-22

   xtb is free software: you can redistribute it and/or modify it under
   the terms of the GNU Lesser General Public License as published by
   the Free Software Foundation, either version 3 of the License, or
   (at your option) any later version.
   
   xtb is distributed in the hope that it will be useful,
   but WITHOUT ANY WARRANTY; without even the implied warranty of
   MERCHANTABILITY or FITNESS FOR A PARTICULAR PURPOSE.  See the
   GNU Lesser General Public License for more details.
   
   Cite this work as:
   * C. Bannwarth, E. Caldeweyher, S. Ehlert, A. Hansen, P. Pracht,
     J. Seibert, S. Spicher, S. Grimme, WIREs Comput. Mol. Sci., 2020, 11,
     e01493. DOI: 10.1002/wcms.1493
   
   for GFN2-xTB:
   * C. Bannwarth, S. Ehlert and S. Grimme., J. Chem. Theory Comput., 2019,
     15, 1652-1671. DOI: 10.1021/acs.jctc.8b01176
   for GFN1-xTB:
   * S. Grimme, C. Bannwarth, P. Shushkov, J. Chem. Theory Comput., 2017,
     13, 1989-2009. DOI: 10.1021/acs.jctc.7b00118
   for GFN0-xTB:
   * P. Pracht, E. Caldeweyher, S. Ehlert, S. Grimme, ChemRxiv, 2019, preprint.
     DOI: 10.26434/chemrxiv.8326202.v1
   for GFN-FF:
   * S. Spicher and S. Grimme, Angew. Chem. Int. Ed., 2020, 59, 15665-15673.
     DOI: 10.1002/anie.202004239
   
   for ALPB and GBSA implicit solvation:
   * S. Ehlert, M. Stahn, S. Spicher, S. Grimme, J. Chem. Theory Comput.,
     2021, 17, 4250-4261. DOI: 10.1021/acs.jctc.1c00471
   
   for ddCOSMO and CPCM-X implicit solvation:
   * M. Stahn, S. Ehlert, S. Grimme, J. Phys. Chem. A,
     2023, XX, XXXX-XXXX. DOI: 10.1021/acs.jpca.3c04382
   
   for DFT-D4:
   * E. Caldeweyher, C. Bannwarth and S. Grimme, J. Chem. Phys., 2017,
     147, 034112. DOI: 10.1063/1.4993215
   * E. Caldeweyher, S. Ehlert, A. Hansen, H. Neugebauer, S. Spicher,
     C. Bannwarth and S. Grimme, J. Chem. Phys., 2019, 150, 154122.
     DOI: 10.1063/1.5090222
   * E. Caldeweyher, J.-M. Mewes, S. Ehlert and S. Grimme, Phys. Chem. Chem. Phys.
     2020, 22, 8499-8512. DOI: 10.1039/D0CP00502A
   
   for sTDA-xTB:
   * S. Grimme and C. Bannwarth, J. Chem. Phys., 2016, 145, 054103.
     DOI: 10.1063/1.4959605
   
   in the mass-spec context:
   * V. Asgeirsson, C. Bauer and S. Grimme, Chem. Sci., 2017, 8, 4879.
     DOI: 10.1039/c7sc00601b
   * J. Koopman and S. Grimme, ACS Omega 2019, 4, 12, 15120-15133.
     DOI: 10.1021/acsomega.9b02011
   
   for metadynamics refer to:
   * S. Grimme, J. Chem. Theory Comput., 2019, 155, 2847-2862
     DOI: 10.1021/acs.jctc.9b00143
   
   for SPH calculations refer to:
   * S. Spicher and S. Grimme, J. Chem. Theory Comput., 2021, 17, 1701-1714
     DOI: 10.1021/acs.jctc.0c01306
   
   for ONIOM refer to:
   * C. Plett, A. Katbashev, S. Ehlert, S. Grimme, M. Bursch,
     Phys. Chem. Chem. Phys., 2023, 25, 17860-17868. DOI: 10.1039/D3CP02178E
   
   for DIPRO refer to:
   * J. Kohn, N. Gildemeister, S. Grimme, D. Fazzi, A. Hansen,
     J. Chem. Phys., 2023, just accepted.
   
   for PTB refer to:
   * S. Grimme, M. Mueller, A. Hansen, J. Chem. Phys., 2023, 158, 124111.
     DOI: 10.1063/5.0137838
   
   with help from (in alphabetical order)
   P. Atkinson, C. Bannwarth, F. Bohle, G. Brandenburg, E. Caldeweyher
   M. Checinski, S. Dohm, S. Ehlert, S. Ehrlich, I. Gerasimov, C. Hölzer
   A. Katbashev, J. Kohn, J. Koopman, C. Lavigne, S. Lehtola, F. März, M. Müller,
   F. Musil, H. Neugebauer, J. Pisarek, C. Plett, P. Pracht, F. Pultar,
   J. Seibert, P. Shushkov, S. Spicher, M. Stahn, M. Steiner, T. Strunk,
   J. Stückrath, T. Rose, and J. Unsleber
   
 * started run on 2025/04/11 at 15:53:54.825     
   ID    Z sym.   atoms
    1    6 C      1-4, 7, 8
    2    8 O      5, 6
    3    1 H      9-20

           -------------------------------------------------
          |                Calculation Setup                |
           -------------------------------------------------

          program call               : /srv/scratch/z5358697/.xtb/bin/xtb solv.coord --gfn2 --sp --chrg 0 --norestart --parallel 1 --alpb water reference -I xtb_sp-xcontrol-inp
          hostname                   : k061
          coordinate file            : solv.coord
          omp threads                :                     1


           -------------------------------------------------
          |                 G F N 2 - x T B                 |
           -------------------------------------------------

        Reference                      10.1021/acs.jctc.8b01176
      * Hamiltonian:
        H0-scaling (s, p, d)           1.850000    2.230000    2.230000
        zeta-weighting                 0.500000
      * Dispersion:
        s8                             2.700000
        a1                             0.520000
        a2                             5.000000
        s9                             5.000000
      * Repulsion:
        kExp                           1.500000    1.000000
        rExp                           1.000000
      * Coulomb:
        alpha                          2.000000
        third order                    shell-resolved
        anisotropic                    true
        a3                             3.000000
        a5                             4.000000
        cn-shift                       1.200000
        cn-exp                         4.000000
        max-rad                        5.000000

      * Solvation model:               ALPB
        Solvent                        water
        Parameter file                 internal GFN2-xTB/ALPB
        Dielectric constant                8.0200E+01
        Reference state                gsolv=reference [X=1]
        Free energy shift                  2.8945E-03 Eh       1.8164E+00 kcal/mol
        Temperature                        2.9815E+02 K
        Density                            1.0000E+00 kg/L
        Solvent mass                       1.8000E+01 g/mol
        Interaction kernel             P16
        Born radius scaling (c1)           1.4744E+00
        Born radii integrator          GBOBC
        Born offset                        0.0000E+00 a0       0.0000E+00 AA
        H-bond correction              true
        Ion screening                  false
        Surface tension                    1.0000E-05 Eh       1.5569E+01 dyn/cm
        Grid points                               974 per atom

          ...................................................
          :                      SETUP                      :
          :.................................................:
          :  # basis functions                  44          :
          :  # atomic orbitals                  44          :
          :  # shells                           28          :
          :  # electrons                        48          :
          :  max. iterations                   250          :
          :  Hamiltonian                  GFN2-xTB          :
          :  restarted?                      false          :
          :  GBSA solvation                   true          :
          :  PC potential                    false          :
          :  electronic temp.          300.0000000     K    :
          :  accuracy                    1.0000000          :
          :  -> integral cutoff          0.2500000E+02      :
          :  -> integral neglect         0.1000000E-07      :
          :  -> SCF convergence          0.1000000E-05 Eh   :
          :  -> wf. convergence          0.1000000E-03 e    :
          :  Broyden damping             0.4000000          :
          :  net charge                          0          :
          :  unpaired electrons                  0          :
          ...................................................

 iter      E             dE          RMSdq      gap      omega  full diag
   1    -27.3729288 -0.273729E+02  0.400E+00    5.84       0.0  T
   2    -27.4336622 -0.607334E-01  0.202E+00    4.89       1.0  T
   3    -27.4353045 -0.164230E-02  0.100E+00    5.20       1.0  T
   4    -27.4366656 -0.136106E-02  0.160E-01    4.96       1.0  T
   5    -27.4368672 -0.201574E-03  0.673E-02    5.02       1.0  T
   6    -27.4368689 -0.178124E-05  0.216E-02    5.01       1.0  T
   7    -27.4368701 -0.116924E-05  0.411E-03    5.02       5.4  T
   8    -27.4368701 -0.253380E-07  0.234E-03    5.02       9.6  T
   9    -27.4368702 -0.112032E-07  0.388E-04    5.02      57.7  T
  10    -27.4368702 -0.346226E-09  0.206E-04    5.02     108.4  T

   *** convergence criteria satisfied after 10 iterations ***

         #    Occupation            Energy/Eh            Energy/eV
      -------------------------------------------------------------
         1        2.0000           -0.7494377             -20.3932
       ...           ...                  ...                  ...
        18        2.0000           -0.4657078             -12.6726
        19        2.0000           -0.4654353             -12.6651
        20        2.0000           -0.4498920             -12.2422
        21        2.0000           -0.4471908             -12.1687
        22        2.0000           -0.4401900             -11.9782
        23        2.0000           -0.4288569             -11.6698
        24        2.0000           -0.4200175             -11.4293 (HOMO)
        25                         -0.2356769              -6.4131 (LUMO)
        26                         -0.0042686              -0.1162
        27                          0.0781508               2.1266
        28                          0.1125426               3.0624
        29                          0.1175203               3.1979
       ...                                ...                  ...
        44                          0.6025834              16.3971
      -------------------------------------------------------------
                  HL-Gap            0.1843406 Eh            5.0162 eV
             Fermi-level           -0.3278472 Eh           -8.9212 eV

 SCC (total)                   0 d,  0 h,  0 min,  0.034 sec
 SCC setup                      ...        0 min,  0.002 sec (  5.231%)
 Dispersion                     ...        0 min,  0.000 sec (  0.375%)
 classical contributions        ...        0 min,  0.000 sec (  0.079%)
 integral evaluation            ...        0 min,  0.002 sec (  5.629%)
 iterations                     ...        0 min,  0.024 sec ( 71.347%)
 molecular gradient             ...        0 min,  0.006 sec ( 16.855%)
 printout                       ...        0 min,  0.000 sec (  0.431%)

         :::::::::::::::::::::::::::::::::::::::::::::::::::::
         ::                     SUMMARY                     ::
         :::::::::::::::::::::::::::::::::::::::::::::::::::::
         :: total energy             -27.120626309620 Eh    ::
         :: total w/o Gsasa/hb       -27.122223878227 Eh    ::
         :: gradient norm              0.000182112429 Eh/a0 ::
         :: HOMO-LUMO gap              5.016163894970 eV    ::
         ::.................................................::
         :: SCC energy               -27.436855760368 Eh    ::
         :: -> isotropic ES            0.059944855081 Eh    ::
         :: -> anisotropic ES          0.000963530016 Eh    ::
         :: -> anisotropic XC          0.008200054998 Eh    ::
         :: -> dispersion             -0.011407023020 Eh    ::
         :: -> Gsolv                  -0.007566088100 Eh    ::
         ::    -> Gelec               -0.009163656708 Eh    ::
         ::    -> Gsasa                0.001048584326 Eh    ::
         ::    -> Ghb                 -0.002345564879 Eh    ::
         ::    -> Gshift               0.002894549160 Eh    ::
         :: repulsion energy           0.316229450749 Eh    ::
         :: add. restraining           0.000000000000 Eh    ::
         :: total charge               0.000000000000 e     ::
         :::::::::::::::::::::::::::::::::::::::::::::::::::::

           -------------------------------------------------
          |                Property Printout                |
           -------------------------------------------------

    * Orbital Energies and Occupations

         #    Occupation            Energy/Eh            Energy/eV
      -------------------------------------------------------------
         1        2.0000           -0.7494377             -20.3932
       ...           ...                  ...                  ...
        12        2.0000           -0.5193526             -14.1323
        13        2.0000           -0.5133653             -13.9694
        14        2.0000           -0.5053762             -13.7520
        15        2.0000           -0.4934043             -13.4262
        16        2.0000           -0.4847679             -13.1912
        17        2.0000           -0.4689331             -12.7603
        18        2.0000           -0.4657078             -12.6726
        19        2.0000           -0.4654353             -12.6651
        20        2.0000           -0.4498920             -12.2422
        21        2.0000           -0.4471908             -12.1687
        22        2.0000           -0.4401900             -11.9782
        23        2.0000           -0.4288569             -11.6698
        24        2.0000           -0.4200175             -11.4293 (HOMO)
        25                         -0.2356769              -6.4131 (LUMO)
        26                         -0.0042686              -0.1162
        27                          0.0781508               2.1266
        28                          0.1125426               3.0624
        29                          0.1175203               3.1979
        30                          0.1366040               3.7172
        31                          0.1387514               3.7756
        32                          0.1576958               4.2911
        33                          0.1608131               4.3759
        34                          0.1716665               4.6713
        35                          0.1809785               4.9247
       ...                                ...                  ...
        44                          0.6025834              16.3971
      -------------------------------------------------------------
                  HL-Gap            0.1843406 Eh            5.0162 eV
             Fermi-level           -0.3278472 Eh           -8.9212 eV

     #   Z          covCN         q      C6AA      α(0)
     1   6 C        3.753    -0.118    22.819     6.812
     2   6 C        3.801    -0.059    21.641     6.623
     3   6 C        3.805    -0.101    22.416     6.740
     4   6 C        2.711     0.364    20.825     7.470
     5   8 O        0.856    -0.500    23.784     6.539
     6   8 O        1.703    -0.265    18.391     5.790
     7   6 C        3.694     0.067    19.618     6.337
     8   6 C        3.750    -0.127    22.996     6.839
     9   1 H        0.925     0.048     2.340     2.392
    10   1 H        0.925     0.044     2.396     2.421
    11   1 H        0.925     0.044     2.392     2.418
    12   1 H        0.924     0.048     2.341     2.393
    13   1 H        0.924     0.048     2.342     2.393
    14   1 H        0.924     0.087     1.908     2.160
    15   1 H        0.924     0.087     1.909     2.161
    16   1 H        0.924     0.059     2.215     2.327
    17   1 H        0.924     0.082     1.959     2.189
    18   1 H        0.925     0.071     2.076     2.253
    19   1 H        0.925     0.067     2.124     2.279
    20   1 H        0.925     0.053     2.289     2.366

 Mol. C6AA /au·bohr⁶  :       2994.740058
 Mol. C8AA /au·bohr⁸  :      63815.237234
 Mol. α(0) /au        :         80.900881


Wiberg/Mayer (AO) data.
largest (>0.10) Wiberg bond orders for each atom

 ---------------------------------------------------------------------------
     #   Z sym  total        # sym  WBO       # sym  WBO       # sym  WBO
 ---------------------------------------------------------------------------
     1   6 C    3.995 --     2 C    1.019    10 H    0.987    11 H    0.987
                             9 H    0.986
     2   6 C    3.993 --     1 C    1.019     3 C    1.008    12 H    0.977
                            13 H    0.977
     3   6 C    3.989 --     2 C    1.008     4 C    0.983    15 H    0.946
                            14 H    0.944
     4   6 C    3.905 --     5 O    1.679     6 O    1.175     3 C    0.983
     5   8 O    1.960 --     4 C    1.679     6 O    0.169
     6   8 O    2.326 --     4 C    1.175     7 C    0.919     5 O    0.169
     7   6 C    3.911 --     8 C    1.013    16 H    0.970    17 H    0.969
                             6 O    0.919
     8   6 C    3.989 --     7 C    1.013    20 H    0.986    19 H    0.984
                            18 H    0.980
     9   1 H    0.997 --     1 C    0.986
    10   1 H    0.998 --     1 C    0.987
    11   1 H    0.998 --     1 C    0.987
    12   1 H    0.998 --     2 C    0.977
    13   1 H    0.998 --     2 C    0.977
    14   1 H    0.992 --     3 C    0.944
    15   1 H    0.992 --     3 C    0.946
    16   1 H    0.997 --     7 C    0.970
    17   1 H    0.993 --     7 C    0.969
    18   1 H    0.994 --     8 C    0.980
    19   1 H    0.996 --     8 C    0.984
    20   1 H    0.997 --     8 C    0.986
 ---------------------------------------------------------------------------

Topologies differ in total number of bonds
Writing topology from bond orders to xtbtopo.mol

molecular dipole:
                 x           y           z       tot (Debye)
 q only:       -0.143      -1.050       0.636
   full:       -0.162      -0.986       0.641       3.017
molecular quadrupole (traceless):
                xx          xy          yy          xz          yz          zz
 q only:        9.718      -3.197      -6.643       2.833       3.476      -3.075
  q+dip:        7.453      -3.623      -5.884       3.265       4.703      -1.569
   full:        8.014      -3.599      -6.227       3.120       5.052      -1.787


           -------------------------------------------------
          | TOTAL ENERGY              -27.120626309620 Eh   |
          | GRADIENT NORM               0.000182112429 Eh/α |
          | HOMO-LUMO GAP               5.016163894970 eV   |
           -------------------------------------------------

------------------------------------------------------------------------
 * finished run on 2025/04/11 at 15:53:54.899     
------------------------------------------------------------------------
 total:
 * wall-time:     0 d,  0 h,  0 min,  0.073 sec
 *  cpu-time:     0 d,  0 h,  0 min,  0.033 sec
 * ratio c/w:     0.449 speedup
 SCF:
 * wall-time:     0 d,  0 h,  0 min,  0.034 sec
 *  cpu-time:     0 d,  0 h,  0 min,  0.022 sec
 * ratio c/w:     0.639 speedup

