
                                 *****************
                                 * O   R   C   A *
                                 *****************

                                            #,                                       
                                            ###                                      
                                            ####                                     
                                            #####                                    
                                            ######                                   
                                           ########,                                 
                                     ,,################,,,,,                         
                               ,,#################################,,                 
                          ,,##########################################,,             
                       ,#########################################, ''#####,          
                    ,#############################################,,   '####,        
                  ,##################################################,,,,####,       
                ,###########''''           ''''###############################       
              ,#####''   ,,,,##########,,,,          '''####'''          '####       
            ,##' ,,,,###########################,,,                        '##       
           ' ,,###''''                  '''############,,,                           
         ,,##''                                '''############,,,,        ,,,,,,###''
      ,#''                                            '''#######################'''  
     '                                                          ''''####''''         
             ,#######,   #######,   ,#######,      ##                                
            ,#'     '#,  ##    ##  ,#'     '#,    #''#        ,####,   ,####,        
            ##       ##  ##   ,#'  ##            #'  '#       #'       #'  '#        
            ##       ##  #######   ##           ,######,      #####,   #    #        
            '#,     ,#'  ##    ##  '#,     ,#' ,#      #,     #,   #   #,  ,#        
             '#######'   ##     ##  '#######'  #'      '#     '####' # '####'        



                #########################################################
                #                        -***-                          #
                #          Department of theory and spectroscopy        #
                #                                                       #
                #                      Frank Neese                      #
                #                                                       #
                #     Directorship, Architecture, Infrastructure        #
                #                    SHARK, DRIVERS                     #
                #        Core code/Algorithms in most modules           #
                #                                                       #
                #        Max Planck Institute fuer Kohlenforschung      #
                #                Kaiser Wilhelm Platz 1                 #
                #                 D-45470 Muelheim/Ruhr                 #
                #                      Germany                          #
                #                                                       #
                #                  All rights reserved                  #
                #                        -***-                          #
                #########################################################


                         Program Version 6.0.0  -   RELEASE  -


 With contributions from (in alphabetic order):
   Daniel Aravena         : Magnetic Suceptibility
   Michael Atanasov       : Ab Initio Ligand Field Theory (pilot matlab implementation)
   Alexander A. Auer      : GIAO ZORA, VPT2 properties, NMR spectrum
   Ute Becker             : All parallelization in ORCA, NUMFREQ, NUMCALC
   Giovanni Bistoni       : ED, misc. LED, open-shell LED, HFLD
   Martin Brehm           : Molecular dynamics
   Dmytro Bykov           : pre 5.0 version of the SCF Hessian
   Marcos Casanova-Páez   : Triplet and SCS-CIS(D). UHF-(DLPNO)-IP/EA/STEOM-CCSD. UHF-CVS-IP/STEOM-CCSD
   Vijay G. Chilkuri      : MRCI spin determinant printing, contributions to CSF-ICE
   Pauline Colinet        : FMM embedding
   Dipayan Datta          : RHF DLPNO-CCSD density
   Achintya Kumar Dutta   : EOM-CC, STEOM-CC
   Nicolas Foglia         : Exact transition moments, OPA infrastructure, MCD improvements
   Dmitry Ganyushin       : Spin-Orbit,Spin-Spin,Magnetic field MRCI
   Miquel Garcia          : C-PCM and meta-GGA Hessian, CCSD/C-PCM, Gaussian charge scheme
   Tiago L. C. Gouveia    : GS-ROHF, GS-ROCIS
   Yang Guo               : DLPNO-NEVPT2, F12-NEVPT2, CIM, IAO-localization
   Andreas Hansen         : Spin unrestricted coupled pair/coupled cluster methods
   Ingolf Harden          : AUTO-CI MPn and infrastructure 
   Benjamin Helmich-Paris : MC-RPA, TRAH-(SCF,CASSCF), AVAS, COSX integrals, SCF dyn. polar.
   Lee Huntington         : MR-EOM, pCC
   Robert Izsak           : Overlap fitted RIJCOSX, COSX-SCS-MP3, EOM
   Riya Kayal             : Wick's Theorem for AUTO-CI, AUTO-CI UHF-CCSDT
   Emily Kempfer          : AUTO-CI, RHF CISDT and CCSDT
   Christian Kollmar      : KDIIS, OOCD, Brueckner-CCSD(T), CCSD density, CASPT2, CASPT2-K, improved NEVPT2
   Axel Koslowski         : Symmetry handling
   Simone Kossmann        : Meta GGA functionals, TD-DFT gradient, OOMP2, (MP2 Hessian; deprecated post 5.0)
   Lucas Lang             : DCDCAS
   Marvin Lechner         : AUTO-CI (C++ implementation), FIC-MRCC
   Spencer Leger          : CASSCF response
   Dagmar Lenk            : GEPOL surface, SMD, ORCA-2-JSON
   Dimitrios Liakos       : Extrapolation schemes; Compound Job, initial MDCI parallelization
   Dimitrios Manganas     : Further ROCIS development; embedding schemes. LFT, Crystal Embedding
   Dimitrios Pantazis     : SARC Basis sets
   Anastasios Papadopoulos: AUTO-CI, single reference methods and gradients
   Taras Petrenko         : pre 6.0 DFT Hessian and TD-DFT gradient, (ASA, deprecated), ECA, 1-Electron XAS/XES, NRVS
   Peter Pinski           : DLPNO-MP2, DLPNO-MP2 Gradient
   Christoph Reimann      : Effective Core Potentials
   Marius Retegan         : Local ZFS, SOC
   Christoph Riplinger    : Optimizer, TS searches, QM/MM, DLPNO-CCSD(T), (RO)-DLPNO pert. Triples
   Michael Roemelt        : Original ROCIS implementation
   Masaaki Saitow         : Open-shell DLPNO-CCSD energy and density
   Barbara Sandhoefer     : DKH picture change effects
   Kantharuban Sivalingam : CASSCF convergence/infrastructure, NEVPT2 and variants, FIC-MRCI
   Bernardo de Souza      : ESD, SOC TD-DFT
   Georgi Stoychev        : AutoAux, RI-MP2 NMR, DLPNO-MP2 response, X2C
   Van Anh Tran           : RI-MP2 g-tensors
   Willem Van den Heuvel  : Paramagnetic NMR
   Zikuan Wang            : NOTCH, Electric field optimization 
   Frank Wennmohs         : Technical directorship and infrastructure
   Hang Xu                : AUTO-CI-Response properties 


 We gratefully acknowledge several colleagues who have allowed us to
 interface, adapt or use parts of their codes:
   Stefan Grimme, W. Hujo, H. Kruse, P. Pracht,  : VdW corrections, initial TS optimization,
                  C. Bannwarth, S. Ehlert,         DFT functionals, gCP, sTDA/sTD-DF
                  L. Wittmann, M. Mueller
   Ed Valeev, F. Pavosevic, A. Kumar             : LibInt (2-el integral package), F12 methods
   Garnet Chan, S. Sharma, J. Yang, R. Olivares  : DMRG
   Ulf Ekstrom                                   : XCFun DFT Library
   Mihaly Kallay                                 : mrcc  (arbitrary order and MRCC methods)
   Frank Weinhold                                : gennbo (NPA and NBO analysis)
   Simon Mueller                                 : openCOSMO-RS
   Christopher J. Cramer and Donald G. Truhlar   : smd solvation model
   Lars Goerigk                                  : TD-DFT with DH, B97 family of functionals
   V. Asgeirsson, H. Jonsson                     : NEB implementation
   FAccTs GmbH                                   : IRC, NEB, NEB-TS, DLPNO-Multilevel, CI-OPT
                                                   MM, QMMM, 2- and 3-layer-ONIOM, Crystal-QMMM,
                                                   LR-CPCM, SF, NACMEs, symmetry and pop. for TD-DFT,
                                                   nearIR, NL-DFT gradient (VV10), updates on ESD,
                                                   ML-optimized integration grids, MBIS, APM,
                                                   GOAT, DOCKER, SOLVATOR, interface openCOSMO-RS
   S Lehtola, MJT Oliveira, MAL Marques          : LibXC Library
   Liviu Ungur et al                             : ANISO software


 Your calculation uses the libint2 library for the computation of 2-el integrals
 For citations please refer to: http://libint.valeyev.net

 Your ORCA version has been built with support for libXC version: 6.2.2
 For citations please refer to: https://libxc.gitlab.io

 This ORCA versions uses:
   CBLAS   interface :  Fast vector & matrix operations
   LAPACKE interface :  Fast linear algebra routines
   SCALAPACK package :  Parallel linear algebra routines
   Shared memory     :  Shared parallel matrices
   BLAS/LAPACK       :  OpenBLAS 0.3.27  USE64BITINT DYNAMIC_ARCH NO_AFFINITY SkylakeX SINGLE_THREADED
        Core in use  :  SkylakeX
   Copyright (c) 2011-2014, The OpenBLAS Project


Your calculation utilizes the geometrical counterpoise correction gCP
Please cite in your paper:
H.Kruse, S. Grimme J.Chem.Phys., 136, (2012), 154101 
   

Your calculation utilizes the atom-pairwise dispersion correction
based on EEQ partial charges (D4)


Your calculation utilizes the SMD solvation module
Please cite in your paper:
A.V. Marenich, C.J. Cramer, D.G. Truhlar J. Phys. Chem. B, 113, (2009), 6378 

================================================================================

----- Orbital basis set information -----
Your calculation utilizes the basis: def2-mTZVPP
   Stefan Grimme, Andreas Hansen, Sebastian Ehlert, and Jan-Michael Mewes 
   J. Chem. Phys. 154, 064103 (2021). DOI: 10.1063/5.0040021

----- AuxJ basis set information -----
Your calculation utilizes the auxiliary basis: def2/J
   F. Weigend, Phys. Chem. Chem. Phys. 8, 1057 (2006).

================================================================================
                                        WARNINGS
                       Please study these warnings very carefully!
================================================================================

Using LibXC functional ID 497 : Re-regularized SCAN exchange by Furness et al
[ 1]  J. W. Furness, A. D. Kaplan, J. Ning, J. P. Perdew, and J. Sun.,  J. Phys. Chem. Lett. 11, 8208-8215 (2020)
[ 2]  J. W. Furness, A. D. Kaplan, J. Ning, J. P. Perdew, and J. Sun.,  J. Phys. Chem. Lett. 11, 9248-9248 (2020)
Using LibXC functional ID 498 : Re-regularized SCAN correlation by Furness et al
[ 1]  J. W. Furness, A. D. Kaplan, J. Ning, J. P. Perdew, and J. Sun.,  J. Phys. Chem. Lett. 11, 8208-8215 (2020)
[ 2]  J. W. Furness, A. D. Kaplan, J. Ning, J. P. Perdew, and J. Sun.,  J. Phys. Chem. Lett. 11, 9248-9248 (2020)
Using LibXC functional ID 497 : Re-regularized SCAN exchange by Furness et al
[ 1]  J. W. Furness, A. D. Kaplan, J. Ning, J. P. Perdew, and J. Sun.,  J. Phys. Chem. Lett. 11, 8208-8215 (2020)
[ 2]  J. W. Furness, A. D. Kaplan, J. Ning, J. P. Perdew, and J. Sun.,  J. Phys. Chem. Lett. 11, 9248-9248 (2020)
Using LibXC functional ID 498 : Re-regularized SCAN correlation by Furness et al
[ 1]  J. W. Furness, A. D. Kaplan, J. Ning, J. P. Perdew, and J. Sun.,  J. Phys. Chem. Lett. 11, 8208-8215 (2020)
[ 2]  J. W. Furness, A. D. Kaplan, J. Ning, J. P. Perdew, and J. Sun.,  J. Phys. Chem. Lett. 11, 9248-9248 (2020)

================================================================================
                                       INPUT FILE
================================================================================
NAME = sp_solv.inp
|  1> ! r2scan-3c def2/J RI DEFGRID2 scfconv6 printgap
|  2> %output
|  3>     printlevel normal
|  4> end
|  5> %cpcm
|  6>     smd true
|  7>     smdsolvent "water"
|  8> end
|  9> * xyz 0 1
| 10> C -2.5959908879 -1.2660629508 -0.0163209456
| 11> C -2.5218945082 0.2560010669 -0.0079514782
| 12> C -1.2487576261 0.7548839786 0.6837355808
| 13> C -0.0264248521 0.3795591632 -0.1143871182
| 14> O 0.1507011483 0.6595202817 -1.2818500318
| 15> O 0.8387658054 -0.3135910023 0.6155532287
| 16> C 2.0737630371 -0.7303623785 0.0097053874
| 17> C 3.1467127595 0.3358104434 0.1688223634
| 18> H -3.5163099332 -1.5979667958 -0.48930544
| 19> H -1.7569568589 -1.6846705716 -0.5692197971
| 20> H -2.5671171823 -1.6556861458 0.9984200567
| 21> H -3.3882758905 0.662440231 0.5143329826
| 22> H -2.5309125627 0.6304082196 -1.0334054776
| 23> H -1.1555222463 0.3334248762 1.683768264
| 24> H -1.2750613101 1.8438527904 0.7487817177
| 25> H 2.3439393944 -1.6469524813 0.5350678523
| 26> H 1.8903098721 -0.9382083213 -1.0489744416
| 27> H 3.2800900942 0.5777953343 1.219697014
| 28> H 4.0832154684 -0.0328867239 -0.2366624408
| 29> H 2.8594191608 1.2367550656 -0.3687906422
| 30> *
| 31> 
| 32>                          ****END OF INPUT****
================================================================================

                       ****************************
                       * Single Point Calculation *
                       ****************************

---------------------------------
CARTESIAN COORDINATES (ANGSTROEM)
---------------------------------
  C     -2.595991   -1.266063   -0.016321
  C     -2.521895    0.256001   -0.007951
  C     -1.248758    0.754884    0.683736
  C     -0.026425    0.379559   -0.114387
  O      0.150701    0.659520   -1.281850
  O      0.838766   -0.313591    0.615553
  C      2.073763   -0.730362    0.009705
  C      3.146713    0.335810    0.168822
  H     -3.516310   -1.597967   -0.489305
  H     -1.756957   -1.684671   -0.569220
  H     -2.567117   -1.655686    0.998420
  H     -3.388276    0.662440    0.514333
  H     -2.530913    0.630408   -1.033405
  H     -1.155522    0.333425    1.683768
  H     -1.275061    1.843853    0.748782
  H      2.343939   -1.646952    0.535068
  H      1.890310   -0.938208   -1.048974
  H      3.280090    0.577795    1.219697
  H      4.083215   -0.032887   -0.236662
  H      2.859419    1.236755   -0.368791

----------------------------
CARTESIAN COORDINATES (A.U.)
----------------------------
  NO LB      ZA    FRAG     MASS         X           Y           Z
   0 C     6.0000    0    12.011   -4.905712   -2.392512   -0.030842
   1 C     6.0000    0    12.011   -4.765690    0.483772   -0.015026
   2 C     6.0000    0    12.011   -2.359810    1.426524    1.292073
   3 C     6.0000    0    12.011   -0.049936    0.717263   -0.216160
   4 O     8.0000    0    15.999    0.284784    1.246313   -2.422346
   5 O     8.0000    0    15.999    1.585038   -0.592601    1.163227
   6 C     6.0000    0    12.011    3.918844   -1.380185    0.018341
   7 C     6.0000    0    12.011    5.946425    0.634590    0.319028
   8 H     1.0000    0     1.008   -6.644863   -3.019720   -0.924653
   9 H     1.0000    0     1.008   -3.320167   -3.183566   -1.075670
  10 H     1.0000    0     1.008   -4.851148   -3.128793    1.886740
  11 H     1.0000    0     1.008   -6.402913    1.251831    0.971948
  12 H     1.0000    0     1.008   -4.782732    1.191299   -1.952853
  13 H     1.0000    0     1.008   -2.183621    0.630082    3.181861
  14 H     1.0000    0     1.008   -2.409517    3.484377    1.414992
  15 H     1.0000    0     1.008    4.429404   -3.112289    1.011132
  16 H     1.0000    0     1.008    3.572168   -1.772957   -1.982274
  17 H     1.0000    0     1.008    6.198472    1.091875    2.304893
  18 H     1.0000    0     1.008    7.716159   -0.062147   -0.447227
  19 H     1.0000    0     1.008    5.403519    2.337128   -0.696913

--------------------------------
INTERNAL COORDINATES (ANGSTROEM)
--------------------------------
 C      0   0   0     0.000000000000     0.00000000     0.00000000
 C      1   0   0     1.523889495812     0.00000000     0.00000000
 C      2   1   0     1.532381371506   111.59521226     0.00000000
 C      3   2   1     1.507304206227   110.71216883    66.81895769
 O      4   3   2     1.213557375043   124.77177270    55.10295068
 O      4   3   2     1.327337536496   111.55744165   235.73343683
 C      6   4   3     1.437347609013   118.66468011   181.10718034
 C      7   6   4     1.520941749380   111.02534950    88.54430900
 H      1   2   3     1.086674578432   110.40385009   178.63901450
 H      1   2   3     1.088534603034   110.45131053   298.41194054
 H      1   2   3     1.087354232394   110.57764746    58.40905525
 H      2   1   3     1.090225000495   109.65450397   239.34771796
 H      2   1   3     1.091704147737   109.69330490   120.41754682
 H      3   2   1     1.089213467834   111.07369779   305.97015792
 H      3   2   1     1.091226812716   109.37601010   185.01610527
 H      7   6   4     1.090476226298   104.68667236   208.80342793
 H      7   6   4     1.094375611944   108.58987611   326.68607150
 H      8   7   6     1.086592716757   110.11364810    55.99967882
 H      8   7   6     1.085077348114   109.36420101   176.16518367
 H      8   7   6     1.087780569745   110.03362166   295.80000732

---------------------------
INTERNAL COORDINATES (A.U.)
---------------------------
 C      0   0   0     0.000000000000     0.00000000     0.00000000
 C      1   0   0     2.879733805444     0.00000000     0.00000000
 C      2   1   0     2.895781124868   111.59521226     0.00000000
 C      3   2   1     2.848392150276   110.71216883    66.81895769
 O      4   3   2     2.293291086631   124.77177270    55.10295068
 O      4   3   2     2.508304431251   111.55744165   235.73343683
 C      6   4   3     2.716193340280   118.66468011   181.10718034
 C      7   6   4     2.874163371976   111.02534950    88.54430900
 H      1   2   3     2.053517349931   110.40385009   178.63901450
 H      1   2   3     2.057032287030   110.45131053   298.41194054
 H      1   2   3     2.054801709785   110.57764746    58.40905525
 H      2   1   3     2.060226675289   109.65450397   239.34771796
 H      2   1   3     2.063021858488   109.69330490   120.41754682
 H      3   2   1     2.058315155584   111.07369779   305.97015792
 H      3   2   1     2.062119826025   109.37601010   185.01610527
 H      7   6   4     2.060701423255   104.68667236   208.80342793
 H      7   6   4     2.068070194217   108.58987611   326.68607150
 H      8   7   6     2.053362653784   110.11364810    55.99967882
 H      8   7   6     2.050499022056   109.36420101   176.16518367
 H      8   7   6     2.055607370619   110.03362166   295.80000732

---------------------
BASIS SET INFORMATION
---------------------
There are 3 groups of distinct atoms

 Group   1 Type C   : 11s6p1d contracted to 5s3p1d pattern {62111/411/1}
 Group   2 Type O   : 11s6p2d contracted to 5s3p2d pattern {62111/411/11}
 Group   3 Type H   : 4s1p contracted to 2s1p pattern {31/1}

Atom   0C    basis set group =>   1
Atom   1C    basis set group =>   1
Atom   2C    basis set group =>   1
Atom   3C    basis set group =>   1
Atom   4O    basis set group =>   2
Atom   5O    basis set group =>   2
Atom   6C    basis set group =>   1
Atom   7C    basis set group =>   1
Atom   8H    basis set group =>   3
Atom   9H    basis set group =>   3
Atom  10H    basis set group =>   3
Atom  11H    basis set group =>   3
Atom  12H    basis set group =>   3
Atom  13H    basis set group =>   3
Atom  14H    basis set group =>   3
Atom  15H    basis set group =>   3
Atom  16H    basis set group =>   3
Atom  17H    basis set group =>   3
Atom  18H    basis set group =>   3
Atom  19H    basis set group =>   3
---------------------------------
AUXILIARY/J BASIS SET INFORMATION
---------------------------------
There are 3 groups of distinct atoms

 Group   1 Type C   : 12s5p4d2f1g contracted to 6s4p3d1f1g pattern {711111/2111/211/2/1}
 Group   2 Type O   : 12s5p4d2f1g contracted to 6s4p3d1f1g pattern {711111/2111/211/2/1}
 Group   3 Type H   : 5s2p1d contracted to 3s1p1d pattern {311/2/1}

Atom   0C    basis set group =>   1
Atom   1C    basis set group =>   1
Atom   2C    basis set group =>   1
Atom   3C    basis set group =>   1
Atom   4O    basis set group =>   2
Atom   5O    basis set group =>   2
Atom   6C    basis set group =>   1
Atom   7C    basis set group =>   1
Atom   8H    basis set group =>   3
Atom   9H    basis set group =>   3
Atom  10H    basis set group =>   3
Atom  11H    basis set group =>   3
Atom  12H    basis set group =>   3
Atom  13H    basis set group =>   3
Atom  14H    basis set group =>   3
Atom  15H    basis set group =>   3
Atom  16H    basis set group =>   3
Atom  17H    basis set group =>   3
Atom  18H    basis set group =>   3
Atom  19H    basis set group =>   3

Checking for AutoStart:
The File: sp_solv.gbw exists
Trying to determine its content:
     ... Fine, the file contains calculation information
     ... Fine, the calculation information was read
     ... Fine, the file contains a basis set
     ... Fine, the basis set was read
     ... Fine, the file contains a geometry
     ... Fine, the geometry was read
     ... Fine, the file contains a set of orbitals
     ... Fine, the orbitals can be read
     => possible old guess file was deleted
     => GBW file was renamed to GES file
     => GES file is set as startup file
     => Guess is set to MORead
     ... now leaving AutoStart

------------------------------------------------------------------------------
                             ORCA STARTUP CALCULATIONS
                           -- RI-GTO INTEGRALS CHOSEN --
------------------------------------------------------------------------------
------------------------------------------------------------------------------
                   ___                                                        
                  /   \      - P O W E R E D   B Y -                         
                 /     \                                                     
                 |  |  |   _    _      __       _____    __    __             
                 |  |  |  | |  | |    /  \     |  _  \  |  |  /  |          
                  \  \/   | |  | |   /    \    | | | |  |  | /  /          
                 / \  \   | |__| |  /  /\  \   | |_| |  |  |/  /          
                |  |  |   |  __  | /  /__\  \  |    /   |      \           
                |  |  |   | |  | | |   __   |  |    \   |  |\   \          
                \     /   | |  | | |  |  |  |  | |\  \  |  | \   \       
                 \___/    |_|  |_| |__|  |__|  |_| \__\ |__|  \__/        
                                                                              
                      - O R C A' S   B I G   F R I E N D -                    
                                      &                                       
                       - I N T E G R A L  F E E D E R -                       
                                                                              
 v1 FN, 2020, v2 2021, v3 2022-2024                                           
------------------------------------------------------------------------------


----------------------
SHARK INTEGRAL PACKAGE
----------------------

Number of atoms                             ...     20
Number of basis functions                   ...    222
Number of shells                            ...    110
Maximum angular momentum                    ...      2
Integral batch strategy                     ... SHARK/LIBINT Hybrid
RI-J (if used) integral strategy            ... SPLIT-RIJ (Revised 2003 algorithm where possible)
Printlevel                                  ...      1
Contraction scheme used                     ... SEGMENTED contraction
Prescreening option                         ... SCHWARTZ
   Thresh                                   ... 1.000e-10
   Tcut                                     ... 1.000e-11
   Tpresel                                  ... 1.000e-11 
Coulomb Range Separation                    ... NOT USED
Exchange Range Separation                   ... NOT USED
Multipole approximations                    ... NOT USED
Finite Nucleus Model                        ... NOT USED
CABS basis                                  ... NOT available
Auxiliary Coulomb fitting basis             ... AVAILABLE
   # of basis functions in Aux-J            ...    524
   # of shells in Aux-J                     ...    180
   Maximum angular momentum in Aux-J        ...      4
Auxiliary J/K fitting basis                 ... NOT available
Auxiliary Correlation fitting basis         ... NOT available
Auxiliary 'external' fitting basis          ... NOT available

Checking pre-screening integrals            ... done (  0.0 sec) Dimension = 110
Check shell pair data                       ... done (  0.0 sec)
Shell pair information
Shell pair cut-off parameter TPreSel        ...   1.0e-11
Total number of shell pairs                 ...      6105
Shell pairs after pre-screening             ...      5322
Total number of primitive shell pairs       ...     21533
Primitive shell pairs kept                  ...     13261
          la=0 lb=0:   1784 shell pairs
          la=1 lb=0:   2007 shell pairs
          la=1 lb=1:    583 shell pairs
          la=2 lb=0:    573 shell pairs
          la=2 lb=1:    322 shell pairs
          la=2 lb=2:     53 shell pairs

Calculating one electron integrals          ... done (  0.0 sec)
Calculating RI/J V-Matrix + Cholesky decomp.... done (  0.1 sec)
Calculating Nuclear repulsion               ... done (  0.0 sec) ENN=    395.674123084751 Eh

Diagonalization of the overlap matrix:
Smallest eigenvalue                        ... 1.869e-04
Time for diagonalization                   ...    0.005 sec
Threshold for overlap eigenvalues          ... 1.000e-07
Number of eigenvalues below threshold      ... 0
Time for construction of square roots      ...    0.021 sec
Total time needed                          ...    0.039 sec

-------------------
DFT GRID GENERATION
-------------------

General Integration Accuracy     IntAcc      ... 4.388
Radial Grid Type                 RadialGrid  ... OptM3 with GC (2021)
Angular Grid (max. ang.)         AngularGrid ... 4 (Lebedev-302)
Angular grid pruning method      GridPruning ... 4 (adaptive)
Weight generation scheme         WeightScheme... mBecke (2022)
Basis function cutoff            BFCut       ... 1.0000e-10
Integration weight cutoff        WCut        ... 1.0000e-14
Partially contracted basis set               ... off
Rotationally invariant grid construction     ... off
Angular grids for H and He will be reduced by one unit
Diffuse basis detected: some atoms will have their outermost
                        angular grid increased by 1.

Total number of grid points                  ...    87345
Total number of batches                      ...     1374
Average number of points per batch           ...       63
Average number of grid points per atom       ...     4367
Initializing property integral containers    ... done (  0.0 sec)

SHARK setup successfully completed in   1.4 seconds

Maximum memory used throughout the entire STARTUP-calculation: 39.3 MB
-------------------------------------------------------------------------------
                                 ORCA GUESS
                   Start orbitals & Density for SCF / CASSCF
-------------------------------------------------------------------------------

------------
SCF SETTINGS
------------
Hamiltonian:
 Density Functional     Method          .... DFT(GTOs)
  Functional kind                       .... Exchange
  Functional name                       .... Re-regularized SCAN exchange by Furness et al
  Functional family                     .... MGGA
  Functional refs                              
    [ 0] J. W. Furness, A. D. Kaplan, J. Ning, J. P. Perdew, and J. Sun.,  J. Phys. Chem. Lett. 11, 8208-8215 (2020), doi: 10.1021/acs.jpclett.0c02405
    [ 1] J. W. Furness, A. D. Kaplan, J. Ning, J. P. Perdew, and J. Sun.,  J. Phys. Chem. Lett. 11, 9248-9248 (2020), doi: 10.1021/acs.jpclett.0c03077
  Functional external parameters        .... 6
    Parameter  0 _c1        =  6.670000e-01 : c1 parameter        
    Parameter  1 _c2        =  8.000000e-01 : c2 parameter        
    Parameter  2 _d         =  1.240000e+00 : d parameter         
    Parameter  3 _k1        =  6.500000e-02 : k1 parameter        
    Parameter  4 _eta       =  1.000000e-03 : eta parameter       
    Parameter  5 _dp2       =  3.610000e-01 : dp2 parameter       
  Functional kind                       .... Correlation
  Functional name                       .... Re-regularized SCAN correlation by Furness et al
  Functional family                     .... MGGA
  Functional refs                              
    [ 0] J. W. Furness, A. D. Kaplan, J. Ning, J. P. Perdew, and J. Sun.,  J. Phys. Chem. Lett. 11, 8208-8215 (2020), doi: 10.1021/acs.jpclett.0c02405
    [ 1] J. W. Furness, A. D. Kaplan, J. Ning, J. P. Perdew, and J. Sun.,  J. Phys. Chem. Lett. 11, 9248-9248 (2020), doi: 10.1021/acs.jpclett.0c03077
  Functional external parameters        .... 1
    Parameter  0 _eta       =  1.000000e-03 : Regularization parameter
 Gradients option       PostSCFGGA      .... off
 RI-approximation to the Coulomb term is turned on
   Number of AuxJ basis functions       .... 524


General Settings:
 Integral files         IntName         .... sp_solv
 Hartree-Fock type      HFTyp           .... RHF
 Total Charge           Charge          ....    0
 Multiplicity           Mult            ....    1
 Number of Electrons    NEL             ....   64
 Basis Dimension        Dim             ....  222
 Nuclear Repulsion      ENuc            ....    395.6741230848 Eh

Convergence Acceleration:
 AO-DIIS                CNVDIIS         .... on
   Start iteration      DIISMaxIt       ....    12
   Startup error        DIISStart       ....  0.200000
   # of expansion vecs  DIISMaxEq       ....     5
   Bias factor          DIISBfac        ....   1.050
   Max. coefficient     DIISMaxC        ....  10.000
 MO-DIIS                CNVKDIIS        .... off
 Trust-Rad. Augm. Hess. CNVTRAH         .... auto
   Auto Start mean grad. ratio tolernc. ....  1.125000
   Auto Start start iteration           ....     1
   Auto Start num. interpolation iter.  ....    10
   Max. Number of Micro iterations      ....    24
   Max. Number of Macro iterations      .... Maxiter - #DIIS iter
   Number of Davidson start vectors     ....     2
   Converg. threshold    (grad. norm)   ....   3.330e-04
   Grad. Scal. Fac. for Micro threshold ....   0.100
   Minimum threshold for Micro iter.    ....   1.000e-02
   NR start threshold (gradient norm)   ....   1.000e-04
   Initial trust radius                 ....   0.400
   Minimum AH scaling param. (alpha)    ....   1.000
   Maximum AH scaling param. (alpha)    .... 1000.000
   Quad. conv. algorithm                .... NR
   White noise on init. David. guess    .... on
   Maximum white noise                  ....   0.010
   Pseudo random numbers                .... off
   Inactive MOs                         .... canonical
   Orbital update algorithm             .... Taylor
   Preconditioner                       .... Diag
   Full preconditioner red. dimension   ....   250
   COSX micro iterations for RIJONX calc.... off
 SOSCF                  CNVSOSCF        .... on
   Start iteration      SOSCFMaxIt      ....   150
   Startup grad/error   SOSCFStart      ....  0.003300
   Hessian update       SOSCFHessUp     .... L-BFGS
 Level Shifting         CNVShift        .... on
   Level shift para.    LevelShift      ....    0.2500
   Turn off err/grad.   ShiftErr        ....    0.0010
 Zerner damping         CNVZerner       .... off
 Static damping         CNVDamp         .... on
   Fraction old density DampFac         ....    0.7000
   Max. Damping (<1)    DampMax         ....    0.9800
   Min. Damping (>=0)   DampMin         ....    0.0000
   Turn off err/grad.   DampErr         ....    0.1000

SCF Procedure:
 Maximum # iterations   MaxIter         ....   125
 SCF integral mode      SCFMode         .... Direct
   Integral package                     .... SHARK and LIBINT hybrid scheme
 Reset frequency        DirectResetFreq ....    20
 Integral Threshold     Thresh          ....  1.000e-10 Eh
 Primitive CutOff       TCut            ....  1.000e-11 Eh

Convergence Tolerance:
 Convergence Check Mode ConvCheckMode   .... Total+1el-Energy
 Convergence forced     ConvForced      .... 0
 Energy Change          TolE            ....  1.000e-06 Eh
 1-El. energy change                    ....  1.000e-03 Eh
 Orbital Gradient       TolG            ....  3.330e-04
 Orbital Rotation angle TolX            ....  3.330e-04
 DIIS Error             TolErr          ....  1.000e-06

---------------------
INITIAL GUESS: MOREAD
---------------------
Guess MOs are being read from file: sp_solv.ges
Input Geometry matches current geometry (good)
Atom 0: N(Shells)= 9 and 6 - projection required
Input basis set needs projection
NBasis(read)= 136
NBasis(calc)= 222
Basis set overlap was calculated
Using GuessMode=FMatrix for the initial guess
C*T matrix was formed
Effective Fockian was calculated
Effective Fockian was diagonalized
Initial density was built
                      ------------------
                      INITIAL GUESS DONE (   0.1 sec)
                      ------------------
             **** ENERGY FILE WAS UPDATED (sp_solv.en.tmp) ****
Finished Guess after   0.3 sec
Maximum memory used throughout the entire GUESS-calculation: 15.1 MB

-------------------------------------------------------------------------------------------
                                      ORCA LEAN-SCF
                              memory conserving SCF solver
-------------------------------------------------------------------------------------------

--------------------
CPCM SOLVATION MODEL
--------------------
CPCM parameters:
  Epsilon                                         ...      78.3550
  Refrac                                          ...       1.3328
  Rsolv                                           ...       1.3000
  Surface type                                    ... GAUSSIAN VDW
  Discretization scheme                           ... Constant charge density
    Threshold for H atoms                         ...       5.0000 (charges/Ang^2)
    Threshold for non-H atoms                     ...       5.0000 (charges/Ang^2)
  Epsilon function type                           ...         CPCM
Solvent:                                          ... WATER
SMD-CDS solvent descriptors:
  Soln                                            ...       1.3328
  Soln25                                          ...       1.3323
  Sola                                            ...       0.0000
  Solb                                            ...       0.0000
  Solg                                            ...       0.0000
  Solc                                            ...       0.0000
  Solh                                            ...       0.0000
Radii:
  Scheme                                          ... Element-dependent radii
  Radius for C  used is    3.4960 Bohr (=   1.8500 Ang.)
  Radius for O  used is    2.8724 Bohr (=   1.5200 Ang.)
  Radius for H  used is    2.2677 Bohr (=   1.2000 Ang.)
Calculating surface                               ...        done! (  0.0s)
Cavity surface points                             ...         1497
Cavity Volume                                     ...     883.8706
Cavity Surface-area                               ...     591.0580
Calculating surface distance matrix               ...        done! (  0.0s)
Performing Cholesky decomposition & store         ...        done! (  0.1s)
Overall time for CPCM initialization              ...                 0.1s

----------------------------------------D-I-I-S--------------------------------------------
Iteration    Energy (Eh)           Delta-E    RMSDP     MaxDP     DIISErr   Damp  Time(sec)
-------------------------------------------------------------------------------------------
               ***  Starting incremental Fock matrix formation  ***
    1    -386.0565678990844845     0.00e+00  3.68e-03  1.32e-01  6.26e-01  0.700   3.8
    2    -386.1156814717917314    -5.91e-02  3.01e-03  9.81e-02  4.41e-01  0.700   3.5
    3    -386.1574929498926849    -4.18e-02  2.22e-03  6.95e-02  3.10e-01  0.700   3.6
    4    -386.1868758237965267    -2.94e-02  1.59e-03  4.90e-02  2.17e-01  0.700   3.4
                               ***Turning on AO-DIIS***
    5    -386.2075053525456951    -2.06e-02  1.16e-03  3.52e-02  1.52e-01  0.700   3.4
    6    -386.2219682870399993    -1.45e-02  8.22e-04  2.49e-02  1.06e-01  0.700   3.5
    7    -386.2321201504310011    -1.02e-02  5.80e-04  1.76e-02  7.42e-02  0.700   3.4
    8    -386.2392350224070015    -7.11e-03  1.36e-03  4.10e-02  5.21e-02  0.000   3.4
                              *** Initializing SOSCF ***
---------------------------------------S-O-S-C-F--------------------------------------
Iteration    Energy (Eh)           Delta-E    RMSDP     MaxDP     MaxGrad    Time(sec)
--------------------------------------------------------------------------------------
    9    -386.2558688207352589    -1.66e-02  1.20e-05  4.92e-04  1.86e-04     3.4
               *** Restarting incremental Fock matrix formation ***
   10    -386.2558690145281162    -1.94e-07  6.51e-06  1.85e-04  4.67e-05     3.7
                  *** Gradient check signals convergence ***

               *****************************************************
               *                     SUCCESS                       *
               *           SCF CONVERGED AFTER  10 CYCLES          *
               *****************************************************


SMD CDS free energy correction energy :                 4.90098     Kcal/mol
Total Energy after SMD CDS correction =              -386.248058805 Eh
             **** ENERGY FILE WAS UPDATED (sp_solv.en.tmp) ****

----------------
TOTAL SCF ENERGY
----------------

Total Energy       :       -386.24805880517482 Eh          -10510.34402 eV

Components:
Nuclear Repulsion  :        395.67412308475093 Eh           10766.84026 eV
Electronic Energy  :       -781.91454548392528 Eh          -21276.97648 eV
One Electron Energy:      -1308.73780384632005 Eh          -35612.56615 eV
Two Electron Energy:        526.82325836239477 Eh           14335.58967 eV
CPCM Dielectric    :         -0.01544661535378 Eh              -0.42032 eV
SMD CDS (Gcds)     :          0.00781020935330 Eh               0.21253 eV

Virial components:
Potential Energy   :       -770.89064874618498 Eh          -20977.00100 eV
Kinetic Energy     :        384.64258994101016 Eh           10466.65699 eV
Virial Ratio       :          2.00417392380914

DFT components:
N(Alpha)           :       31.999985857868 electrons
N(Beta)            :       31.999985857868 electrons
N(Total)           :       63.999971715737 electrons
E(X)               :      -52.083947380929 Eh       
E(C)               :       -2.037990932346 Eh       
E(XC)              :      -54.121938313275 Eh       

CPCM Solvation Model Properties:
Surface-charge          :         -0.04709899291762
Corrected charge        :         -0.00000000000000
Outlying charge corr.   :          0.00016758351101 Eh               0.00456 eV
Free-energy (cav+disp)  :          0.00781020935330 Eh               0.21253 eV

---------------
SCF CONVERGENCE
---------------

  Last Energy change         ...    1.9379e-07  Tolerance :   1.0000e-06
  Last MAX-Density change    ...    1.8527e-04  Tolerance :   1.0000e-05
  Last RMS-Density change    ...    6.5087e-06  Tolerance :   1.0000e-06
  Last DIIS Error            ...    1.8555e-04  Tolerance :   1.0000e-06
  Last Orbital Gradient      ...    4.6704e-05  Tolerance :   3.3300e-04
  Last Orbital Rotation      ...    1.1179e-04  Tolerance :   3.3300e-04


----------------
ORBITAL ENERGIES
----------------

  NO   OCC          E(Eh)            E(eV) 
   0   2.0000     -19.002889      -517.0949 
   1   2.0000     -18.943219      -515.4712 
   2   2.0000     -10.162158      -276.5264 
   3   2.0000     -10.082937      -274.3707 
   4   2.0000     -10.034849      -273.0621 
   5   2.0000     -10.028101      -272.8785 
   6   2.0000     -10.018462      -272.6162 
   7   2.0000     -10.011491      -272.4265 
   8   2.0000      -1.078709       -29.3532 
   9   2.0000      -0.988977       -26.9114 
  10   2.0000      -0.769033       -20.9265 
  11   2.0000      -0.732867       -19.9423 
  12   2.0000      -0.672399       -18.2969 
  13   2.0000      -0.619534       -16.8584 
  14   2.0000      -0.559564       -15.2265 
  15   2.0000      -0.518661       -14.1135 
  16   2.0000      -0.474164       -12.9026 
  17   2.0000      -0.461574       -12.5601 
  18   2.0000      -0.441157       -12.0045 
  19   2.0000      -0.421252       -11.4628 
  20   2.0000      -0.406780       -11.0691 
  21   2.0000      -0.386085       -10.5059 
  22   2.0000      -0.369146       -10.0450 
  23   2.0000      -0.361713        -9.8427 
  24   2.0000      -0.350503        -9.5377 
  25   2.0000      -0.340446        -9.2640 
  26   2.0000      -0.310640        -8.4529 
  27   2.0000      -0.305049        -8.3008 
  28   2.0000      -0.303514        -8.2590 
  29   2.0000      -0.300746        -8.1837 
  30   2.0000      -0.278524        -7.5790 
  31   2.0000      -0.252265        -6.8645 
  32   0.0000      -0.023341        -0.6351 
  33   0.0000       0.076758         2.0887 
  34   0.0000       0.100972         2.7476 
  35   0.0000       0.118367         3.2209 
  36   0.0000       0.125050         3.4028 
  37   0.0000       0.136720         3.7203 
  38   0.0000       0.140710         3.8289 
  39   0.0000       0.143177         3.8961 
  40   0.0000       0.152300         4.1443 
  41   0.0000       0.167894         4.5686 
  42   0.0000       0.177340         4.8257 
*Only the first 10 virtual orbitals were printed.

                    ********************************
                    * MULLIKEN POPULATION ANALYSIS *
                    ********************************

-----------------------
MULLIKEN ATOMIC CHARGES
-----------------------
   0 C :   -0.529623
   1 C :   -0.226715
   2 C :   -0.316190
   3 C :    0.390075
   4 O :   -0.512649
   5 O :   -0.195167
   6 C :   -0.145649
   7 C :   -0.491702
   8 H :    0.161400
   9 H :    0.162752
  10 H :    0.162417
  11 H :    0.163891
  12 H :    0.155557
  13 H :    0.179663
  14 H :    0.193210
  15 H :    0.173397
  16 H :    0.172559
  17 H :    0.165331
  18 H :    0.170123
  19 H :    0.167321
Sum of atomic charges:    0.0000000

--------------------------------
MULLIKEN REDUCED ORBITAL CHARGES
--------------------------------
  0 C s       :     3.348062  s :     3.348062
      pz      :     1.100526  p :     3.154550
      px      :     1.110311
      py      :     0.943712
      dz2     :     0.004867  d :     0.027011
      dxz     :     0.004220
      dyz     :     0.005837
      dx2y2   :     0.006581
      dxy     :     0.005506

  1 C s       :     3.199688  s :     3.199688
      pz      :     1.066069  p :     2.990141
      px      :     0.987645
      py      :     0.936428
      dz2     :     0.007128  d :     0.036887
      dxz     :     0.006065
      dyz     :     0.006635
      dx2y2   :     0.009388
      dxy     :     0.007670

  2 C s       :     3.243464  s :     3.243464
      pz      :     0.998322  p :     3.038176
      px      :     0.925027
      py      :     1.114828
      dz2     :     0.007144  d :     0.034550
      dxz     :     0.009284
      dyz     :     0.003837
      dx2y2   :     0.009631
      dxy     :     0.004654

  3 C s       :     3.168392  s :     3.168392
      pz      :     0.741618  p :     2.316354
      px      :     0.832810
      py      :     0.741926
      dz2     :     0.027566  d :     0.125178
      dxz     :     0.043858
      dyz     :     0.028572
      dx2y2   :     0.013529
      dxy     :     0.011653

  4 O s       :     3.832180  s :     3.832180
      pz      :     1.334998  p :     4.657486
      px      :     1.759480
      py      :     1.563007
      dz2     :     0.009814  d :     0.022983
      dxz     :     0.001785
      dyz     :     0.006970
      dx2y2   :     0.002253
      dxy     :     0.002162

  5 O s       :     3.705127  s :     3.705127
      pz      :     1.644366  p :     4.455193
      px      :     1.237656
      py      :     1.573171
      dz2     :     0.009271  d :     0.034847
      dxz     :     0.004207
      dyz     :     0.007628
      dx2y2   :     0.007330
      dxy     :     0.006410

  6 C s       :     3.266416  s :     3.266416
      pz      :     1.056863  p :     2.826253
      px      :     0.758033
      py      :     1.011356
      dz2     :     0.009879  d :     0.052981
      dxz     :     0.010235
      dyz     :     0.007068
      dx2y2   :     0.013065
      dxy     :     0.012733

  7 C s       :     3.336386  s :     3.336386
      pz      :     1.101325  p :     3.129770
      px      :     1.014129
      py      :     1.014316
      dz2     :     0.006070  d :     0.025545
      dxz     :     0.003187
      dyz     :     0.004925
      dx2y2   :     0.004566
      dxy     :     0.006798

  8 H s       :     0.820269  s :     0.820269
      pz      :     0.005078  p :     0.018332
      px      :     0.008926
      py      :     0.004328

  9 H s       :     0.819018  s :     0.819018
      pz      :     0.005551  p :     0.018230
      px      :     0.007968
      py      :     0.004712

 10 H s       :     0.819344  s :     0.819344
      pz      :     0.010032  p :     0.018239
      px      :     0.003668
      py      :     0.004538

 11 H s       :     0.818135  s :     0.818135
      pz      :     0.005160  p :     0.017973
      px      :     0.008336
      py      :     0.004477

 12 H s       :     0.826507  s :     0.826507
      pz      :     0.010283  p :     0.017936
      px      :     0.003369
      py      :     0.004283

 13 H s       :     0.802496  s :     0.802496
      pz      :     0.010211  p :     0.017841
      px      :     0.003193
      py      :     0.004438

 14 H s       :     0.788596  s :     0.788596
      pz      :     0.003415  p :     0.018194
      px      :     0.003447
      py      :     0.011332

 15 H s       :     0.809065  s :     0.809065
      pz      :     0.004946  p :     0.017538
      px      :     0.003061
      py      :     0.009530

 16 H s       :     0.809528  s :     0.809528
      pz      :     0.011617  p :     0.017913
      px      :     0.002694
      py      :     0.003602

 17 H s       :     0.816378  s :     0.816378
      pz      :     0.010668  p :     0.018292
      px      :     0.003641
      py      :     0.003983

 18 H s       :     0.811364  s :     0.811364
      pz      :     0.004742  p :     0.018513
      px      :     0.009444
      py      :     0.004327

 19 H s       :     0.814422  s :     0.814422
      pz      :     0.005424  p :     0.018258
      px      :     0.003993
      py      :     0.008841


------------------------
MULLIKEN OVERLAP CHARGES
------------------------
B(  0-C ,  1-C ) :   0.4195 B(  0-C ,  2-C ) :  -0.2154 B(  0-C ,  8-H ) :   0.7911 
B(  0-C ,  9-H ) :   0.8435 B(  0-C , 10-H ) :   0.8497 B(  0-C , 12-H ) :  -0.0607 
B(  1-C ,  2-C ) :   0.3940 B(  1-C ,  3-C ) :  -0.0850 B(  1-C ,  8-H ) :  -0.0703 
B(  1-C ,  9-H ) :  -0.0867 B(  1-C , 10-H ) :  -0.0925 B(  1-C , 11-H ) :   0.8302 
B(  1-C , 12-H ) :   0.8509 B(  1-C , 13-H ) :  -0.0726 B(  1-C , 14-H ) :  -0.0668 
B(  2-C ,  3-C ) :   0.2391 B(  2-C ,  4-O ) :  -0.1194 B(  2-C ,  5-O ) :  -0.0508 
B(  2-C ,  9-H ) :  -0.0563 B(  2-C , 11-H ) :  -0.1098 B(  2-C , 12-H ) :  -0.0578 
B(  2-C , 13-H ) :   0.9063 B(  2-C , 14-H ) :   0.7670 B(  3-C ,  4-O ) :   0.9087 
B(  3-C ,  5-O ) :   0.3522 B(  3-C ,  6-C ) :  -0.2063 B(  3-C ,  9-H ) :   0.0628 
B(  3-C , 12-H ) :  -0.0500 B(  3-C , 13-H ) :  -0.1703 B(  4-O ,  5-O ) :  -0.2093 
B(  5-O ,  6-C ) :   0.3054 B(  5-O ,  7-C ) :  -0.1024 B(  5-O , 15-H ) :  -0.0851 
B(  5-O , 16-H ) :  -0.0676 B(  6-C ,  7-C ) :   0.5444 B(  6-C , 15-H ) :   0.7949 
B(  6-C , 16-H ) :   0.8541 B(  6-C , 17-H ) :  -0.0680 B(  6-C , 18-H ) :  -0.0702 
B(  6-C , 19-H ) :  -0.0825 B(  7-C , 16-H ) :  -0.0777 B(  7-C , 17-H ) :   0.8311 
B(  7-C , 18-H ) :   0.8090 B(  7-C , 19-H ) :   0.8377 


                     *******************************
                     * LOEWDIN POPULATION ANALYSIS *
                     *******************************

----------------------
LOEWDIN ATOMIC CHARGES
----------------------
   0 C :   -0.423785
   1 C :   -0.292117
   2 C :   -0.228881
   3 C :    0.364707
   4 O :   -0.497638
   5 O :   -0.599057
   6 C :    0.031123
   7 C :   -0.392573
   8 H :    0.156143
   9 H :    0.156154
  10 H :    0.155846
  11 H :    0.160369
  12 H :    0.163351
  13 H :    0.184429
  14 H :    0.191290
  15 H :    0.188914
  16 H :    0.190027
  17 H :    0.161905
  18 H :    0.167721
  19 H :    0.162074

-------------------------------
LOEWDIN REDUCED ORBITAL CHARGES
-------------------------------
  0 C s       :     2.971508  s :     2.971508
      pz      :     1.160465  p :     3.389492
      px      :     1.154514
      py      :     1.074513
      dz2     :     0.012139  d :     0.062785
      dxz     :     0.010630
      dyz     :     0.012387
      dx2y2   :     0.015962
      dxy     :     0.011667

  1 C s       :     2.934703  s :     2.934703
      pz      :     1.130873  p :     3.277743
      px      :     1.070991
      py      :     1.075879
      dz2     :     0.016410  d :     0.079671
      dxz     :     0.013847
      dyz     :     0.013294
      dx2y2   :     0.020771
      dxy     :     0.015349

  2 C s       :     2.923560  s :     2.923560
      pz      :     1.088968  p :     3.232291
      px      :     1.017074
      py      :     1.126249
      dz2     :     0.016401  d :     0.073031
      dxz     :     0.019024
      dyz     :     0.008282
      dx2y2   :     0.020837
      dxy     :     0.008486

  3 C s       :     2.738962  s :     2.738962
      pz      :     0.969931  p :     2.624650
      px      :     0.898337
      py      :     0.756382
      dz2     :     0.064028  d :     0.271681
      dxz     :     0.095462
      dyz     :     0.061561
      dx2y2   :     0.025679
      dxy     :     0.024949

  4 O s       :     3.543280  s :     3.543280
      pz      :     1.490477  p :     4.731785
      px      :     1.702641
      py      :     1.538667
      dz2     :     0.074371  d :     0.222573
      dxz     :     0.066194
      dyz     :     0.049596
      dx2y2   :     0.014497
      dxy     :     0.017915

  5 O s       :     3.465688  s :     3.465688
      pz      :     1.648171  p :     4.656210
      px      :     1.401667
      py      :     1.606373
      dz2     :     0.092579  d :     0.477159
      dxz     :     0.106248
      dyz     :     0.058885
      dx2y2   :     0.096505
      dxy     :     0.122942

  6 C s       :     2.870855  s :     2.870855
      pz      :     1.062566  p :     2.979040
      px      :     0.863479
      py      :     1.052996
      dz2     :     0.024986  d :     0.118982
      dxz     :     0.022260
      dyz     :     0.014562
      dx2y2   :     0.027430
      dxy     :     0.029744

  7 C s       :     2.974404  s :     2.974404
      pz      :     1.158774  p :     3.358218
      px      :     1.087816
      py      :     1.111628
      dz2     :     0.014909  d :     0.059951
      dxz     :     0.007164
      dyz     :     0.011647
      dx2y2   :     0.010552
      dxy     :     0.015679

  8 H s       :     0.799929  s :     0.799929
      pz      :     0.011852  p :     0.043928
      px      :     0.022127
      py      :     0.009949

  9 H s       :     0.799800  s :     0.799800
      pz      :     0.013218  p :     0.044046
      px      :     0.019721
      py      :     0.011107

 10 H s       :     0.800346  s :     0.800346
      pz      :     0.025158  p :     0.043807
      px      :     0.008131
      py      :     0.010518

 11 H s       :     0.795934  s :     0.795934
      pz      :     0.012614  p :     0.043697
      px      :     0.020360
      py      :     0.010724

 12 H s       :     0.792849  s :     0.792849
      pz      :     0.025877  p :     0.043800
      px      :     0.007647
      py      :     0.010276

 13 H s       :     0.771209  s :     0.771209
      pz      :     0.025805  p :     0.044363
      px      :     0.007468
      py      :     0.011090

 14 H s       :     0.763795  s :     0.763795
      pz      :     0.007882  p :     0.044915
      px      :     0.008387
      py      :     0.028646

 15 H s       :     0.770493  s :     0.770493
      pz      :     0.012448  p :     0.040593
      px      :     0.006159
      py      :     0.021986

 16 H s       :     0.766849  s :     0.766849
      pz      :     0.027912  p :     0.043124
      px      :     0.006980
      py      :     0.008233

 17 H s       :     0.794221  s :     0.794221
      pz      :     0.026916  p :     0.043874
      px      :     0.007948
      py      :     0.009010

 18 H s       :     0.787713  s :     0.787713
      pz      :     0.011004  p :     0.044566
      px      :     0.023344
      py      :     0.010218

 19 H s       :     0.793844  s :     0.793844
      pz      :     0.012992  p :     0.044082
      px      :     0.009252
      py      :     0.021838


---------------------------------
LOEWDIN BOND ORDERS (THRESH 0.050000)
---------------------------------
B(  0-C ,  1-C ) :   1.1419 B(  0-C ,  2-C ) :   0.0670 B(  0-C ,  8-H ) :   0.9283 
B(  0-C ,  9-H ) :   0.9209 B(  0-C , 10-H ) :   0.9278 B(  1-C ,  2-C ) :   1.0835 
B(  1-C ,  3-C ) :   0.0730 B(  1-C , 11-H ) :   0.8915 B(  1-C , 12-H ) :   0.8871 
B(  2-C ,  3-C ) :   0.9275 B(  2-C ,  4-O ) :   0.1818 B(  2-C ,  5-O ) :   0.1870 
B(  2-C , 13-H ) :   0.8608 B(  2-C , 14-H ) :   0.8578 B(  3-C ,  4-O ) :   2.1343 
B(  3-C ,  5-O ) :   1.4668 B(  3-C ,  6-C ) :   0.0842 B(  4-O ,  5-O ) :   0.4546 
B(  4-O ,  6-C ) :   0.0657 B(  5-O ,  6-C ) :   1.3056 B(  5-O ,  7-C ) :   0.1582 
B(  5-O , 15-H ) :   0.0973 B(  5-O , 16-H ) :   0.0918 B(  6-C ,  7-C ) :   1.0838 
B(  6-C , 15-H ) :   0.8282 B(  6-C , 16-H ) :   0.8155 B(  7-C , 17-H ) :   0.9230 
B(  7-C , 18-H ) :   0.9153 B(  7-C , 19-H ) :   0.9208 

------------------------------------------
LOEWDIN REDUCED ORBITAL POPULATIONS PER MO
-------------------------------------------
THRESHOLD FOR PRINTING IS 0.1%%
                      0         1         2         3         4         5   
                 -19.00289 -18.94322 -10.16216 -10.08294 -10.03485 -10.02810
                   2.00000   2.00000   2.00000   2.00000   2.00000   2.00000
                  --------  --------  --------  --------  --------  --------
 1 C  s               0.0       0.0       0.0       0.0       0.0      99.7
 2 C  s               0.0       0.0       0.0       0.0      99.7       0.0
 3 C  s               0.0       0.0      98.9       0.0       0.0       0.0
 4 O  s               0.0      99.9       0.0       0.0       0.0       0.0
 4 O  pz              0.0       0.0       0.2       0.0       0.0       0.0
 4 O  dz2             0.0       0.0       0.3       0.0       0.0       0.0
 5 O  s              99.9       0.0       0.0       0.0       0.0       0.0
 5 O  dxz             0.0       0.0       0.1       0.1       0.0       0.0
 5 O  dxy             0.0       0.0       0.1       0.1       0.0       0.0
 6 C  s               0.0       0.0       0.0      99.4       0.0       0.0

                      6         7         8         9        10        11   
                 -10.01846 -10.01149  -1.07871  -0.98898  -0.76903  -0.73287
                   2.00000   2.00000   2.00000   2.00000   2.00000   2.00000
                  --------  --------  --------  --------  --------  --------
 0 C  s               0.0      99.7       0.0       0.0       7.8       5.8
 0 C  px              0.0       0.0       0.0       0.0       0.1       0.0
 0 C  py              0.0       0.0       0.0       0.0       2.2       0.8
 1 C  s               0.0       0.0       0.1       0.0      17.9       8.0
 1 C  pz              0.0       0.0       0.0       0.0       0.4       0.0
 1 C  px              0.0       0.0       0.2       0.1       1.6       0.0
 1 C  py              0.0       0.1       0.0       0.0       0.1       0.4
 2 C  s               0.0       0.0       1.0       0.2      20.4       1.3
 2 C  pz              0.0       0.0       0.4       0.4       0.6       0.2
 2 C  px              0.0       0.0       1.4       0.0       0.4       2.4
 2 C  py              0.0       0.0       0.2       0.0       0.6       0.0
 3 C  s               0.0       0.0      17.0       3.1       3.1       1.1
 3 C  pz              0.0       0.0       0.1      19.2       4.7       1.2
 3 C  px              0.0       0.0       3.8       0.9       5.3       0.7
 3 C  py              0.0       0.0       0.9       3.6       0.1       0.5
 3 C  dz2             0.0       0.0       0.3       1.2       0.0       0.0
 3 C  dxz             0.0       0.0       0.1       0.5       0.0       0.1
 3 C  dyz             0.0       0.0       0.4       0.0       0.0       0.1
 3 C  dxy             0.0       0.0       0.3       0.2       0.0       0.0
 4 O  s               0.0       0.0      14.4      40.7       1.5       0.1
 4 O  pz              0.0       0.0       3.0       2.9       0.4       0.1
 4 O  px              0.0       0.0       0.0       0.2       0.2       0.0
 4 O  py              0.0       0.0       0.3       0.1       0.0       0.0
 4 O  dz2             0.0       0.0       0.8       0.1       0.3       0.2
 4 O  dxz             0.0       0.0       0.0       0.2       0.4       0.0
 4 O  dyz             0.0       0.0       0.5       0.1       0.0       0.0
 5 O  s               0.0       0.0      39.4      18.8       0.0       0.9
 5 O  pz              0.0       0.0       2.2       0.3       0.1       0.1
 5 O  px              0.0       0.0       0.1       0.5       5.2       9.3
 5 O  py              0.0       0.0       0.5       0.2       1.0       1.7
 5 O  dz2             0.0       0.0       0.0       0.3       0.1       0.2
 5 O  dxz             0.0       0.0       0.1       0.5       0.2       0.8
 5 O  dyz             0.0       0.0       0.3       0.5       0.0       0.1
 5 O  dx2y2           0.0       0.0       0.1       0.1       0.0       0.7
 5 O  dxy             0.0       0.0       0.4       0.0       0.2       0.0
 6 C  s               0.0       0.0       4.0       2.0       4.6      18.0
 6 C  pz              0.0       0.0       0.4       0.7       0.1       0.0
 6 C  px              0.0       0.0       4.1       1.2       0.1       2.1
 6 C  py              0.0       0.0       0.7       0.1       0.1       0.6
 6 C  dxz             0.0       0.0       0.1       0.1       0.0       0.0
 6 C  dx2y2           0.0       0.0       0.1       0.1       0.0       0.0
 7 C  s              99.7       0.0       0.3       0.2       2.3      18.3
 7 C  px              0.0       0.0       0.6       0.2       0.3       0.8
 7 C  py              0.0       0.0       0.1       0.1       0.3       1.0
 8 H  s               0.0       0.0       0.0       0.0       0.9       0.9
 9 H  s               0.0       0.0       0.0       0.0       1.0       0.9
10 H  s               0.0       0.0       0.0       0.0       1.0       0.9
11 H  s               0.0       0.0       0.0       0.0       2.3       1.3
11 H  px              0.0       0.0       0.0       0.0       0.1       0.1
12 H  s               0.0       0.0       0.0       0.0       2.3       1.2
12 H  pz              0.0       0.0       0.0       0.0       0.2       0.1
13 H  s               0.0       0.0       0.1       0.0       3.0       0.1
13 H  pz              0.0       0.0       0.0       0.0       0.3       0.0
14 H  s               0.0       0.0       0.0       0.0       2.7       0.2
14 H  py              0.0       0.0       0.0       0.0       0.3       0.0
15 H  s               0.0       0.0       0.2       0.2       0.7       3.3
15 H  py              0.0       0.0       0.0       0.0       0.1       0.2
16 H  s               0.0       0.0       0.3       0.1       0.6       2.8
16 H  pz              0.0       0.0       0.0       0.0       0.1       0.2
17 H  s               0.0       0.0       0.0       0.0       0.3       2.9
17 H  pz              0.0       0.0       0.0       0.0       0.0       0.2
18 H  s               0.0       0.0       0.0       0.0       0.3       3.0
18 H  px              0.0       0.0       0.0       0.0       0.0       0.2
19 H  s               0.0       0.0       0.0       0.0       0.3       2.8
19 H  py              0.0       0.0       0.0       0.0       0.0       0.2

                     12        13        14        15        16        17   
                  -0.67240  -0.61953  -0.55956  -0.51866  -0.47416  -0.46157
                   2.00000   2.00000   2.00000   2.00000   2.00000   2.00000
                  --------  --------  --------  --------  --------  --------
 0 C  s              18.9       6.7       7.6       0.5       0.1       0.2
 0 C  pz              0.0       0.0       0.0       0.1       1.9       0.1
 0 C  px              0.1       0.0       0.2       0.0       0.3       0.6
 0 C  py              0.1       0.9       7.4       1.0       0.3       0.4
 0 C  dx2y2           0.0       0.0       0.1       0.0       0.0       0.0
 1 C  s               3.0       1.2      14.0       1.2       0.2       0.0
 1 C  pz              0.5       0.2       0.4       0.5       8.5       0.2
 1 C  px              2.6       0.5       2.1       0.4       0.3       0.2
 1 C  py              5.5       3.8       4.5       0.0       0.1       0.3
 1 C  dx2y2           0.2       0.1       0.0       0.0       0.0       0.0
 2 C  s              11.1       3.8       1.9       1.4       2.5       0.0
 2 C  pz              0.1       0.0       0.7       1.1      15.5       0.9
 2 C  px              2.5       1.7       7.3       0.0       3.3       0.0
 2 C  py              0.5       0.6       0.0       0.8       1.1       6.2
 2 C  dxz             0.1       0.0       0.2       0.0       0.1       0.0
 3 C  s               2.6       1.5       0.9       2.5       2.3       1.2
 3 C  pz              2.9       1.2       0.5       0.3       0.2       1.6
 3 C  px              2.9       1.6       2.9       1.0       9.0       1.3
 3 C  py              0.8       0.8       0.6       2.5       0.5       6.8
 3 C  dz2             0.0       0.0       0.0       0.1       0.0       0.1
 3 C  dxz             0.1       0.1       0.1       0.0       0.0       0.0
 4 O  s               0.8       0.3       0.3       2.7       2.8       8.2
 4 O  pz              0.6       0.3       0.4       2.8       6.0      23.5
 4 O  px              0.2       0.1       0.3       0.4       9.4       0.1
 4 O  py              0.0       0.1       0.0       2.2       0.0       0.1
 4 O  dz2             0.3       0.2       0.1       0.0       0.1       0.4
 4 O  dxz             0.3       0.1       0.2       0.0       0.9       0.1
 4 O  dyz             0.0       0.1       0.0       0.3       0.0       0.1
 4 O  dxy             0.0       0.0       0.0       0.0       0.2       0.1
 5 O  s               1.1       0.2       0.8       4.8       0.4       1.0
 5 O  pz              0.1       0.1       0.1      12.1       3.3       5.1
 5 O  px              1.3      11.7       0.1       8.2       0.1      11.7
 5 O  py              0.9       6.3       0.5       1.4       2.3       5.9
 5 O  dz2             0.4       0.0       0.2       0.1       0.5       0.0
 5 O  dxz             0.0       0.3       0.1       0.2       0.9       0.0
 5 O  dyz             0.0       0.2       0.1       0.1       0.0       0.3
 5 O  dx2y2           0.4       0.0       0.2       0.0       0.1       0.2
 5 O  dxy             0.3       0.4       1.0       0.4       0.2       0.1
 6 C  s               0.6       3.7       3.5       5.4       0.0       0.3
 6 C  pz              0.1       0.4       0.2      12.9       5.3       0.1
 6 C  px              3.1       4.9       0.1       1.8       0.2       2.0
 6 C  py              0.6       3.3       2.3       3.3       1.4       7.6
 6 C  dxz             0.1       0.1       0.0       0.3       0.0       0.0
 6 C  dxy             0.1       0.1       0.0       0.0       0.0       0.0
 7 C  s               8.6      14.3       1.8       1.1       0.0       0.1
 7 C  pz              0.0       0.0       0.0       2.1       1.4       0.0
 7 C  px              0.0       1.2       0.6       0.4       0.4       2.9
 7 C  py              0.0       1.0       1.5       3.1       0.2       1.1
 8 H  s               4.1       2.0       2.9       0.2       0.0       0.5
 8 H  px              0.3       0.1       0.2       0.0       0.0       0.0
 9 H  s               3.6       1.9       3.9       0.2       0.1       0.0
 9 H  px              0.2       0.1       0.2       0.0       0.0       0.0
10 H  s               3.7       1.8       3.6       0.5       0.9       0.0
10 H  pz              0.3       0.1       0.3       0.0       0.0       0.0
11 H  s               0.7       0.4       6.8       0.5       0.5       0.0
11 H  pz              0.0       0.0       0.2       0.0       0.0       0.0
11 H  px              0.0       0.0       0.3       0.0       0.0       0.0
12 H  s               0.5       0.4       6.0       0.8       2.4       0.0
12 H  pz              0.0       0.0       0.4       0.0       0.1       0.0
13 H  s               2.4       0.6       1.2       1.0       6.2       1.0
13 H  pz              0.2       0.0       0.1       0.0       0.2       0.0
13 H  py              0.0       0.0       0.0       0.0       0.1       0.0
14 H  s               2.8       1.5       0.7       1.3       2.7       2.0
14 H  py              0.3       0.1       0.0       0.1       0.1       0.1
15 H  s               0.1       1.8       2.2       2.0       1.3       2.9
15 H  pz              0.0       0.0       0.1       0.2       0.0       0.0
15 H  py              0.0       0.1       0.1       0.0       0.1       0.1
16 H  s               0.1       0.8       1.6       9.5       1.5       0.1
16 H  pz              0.0       0.1       0.1       0.5       0.0       0.0
17 H  s               1.7       3.8       0.9       2.1       0.4       0.0
17 H  pz              0.1       0.3       0.1       0.1       0.0       0.0
18 H  s               2.0       4.4       0.6       0.1       0.1       1.2
18 H  px              0.1       0.2       0.0       0.0       0.0       0.0
19 H  s               1.8       4.2       1.0       0.7       0.3       0.3
19 H  py              0.1       0.2       0.0       0.0       0.0       0.0

                     18        19        20        21        22        23   
                  -0.44116  -0.42125  -0.40678  -0.38608  -0.36915  -0.36171
                   2.00000   2.00000   2.00000   2.00000   2.00000   2.00000
                  --------  --------  --------  --------  --------  --------
 0 C  s               0.0       0.0       0.2       0.0       0.0       0.0
 0 C  pz              0.5       7.4       2.7       5.8       8.2      12.3
 0 C  px              4.5       1.6       5.4       8.0      10.6       0.9
 0 C  py              0.0       0.2       4.1       1.0       1.5       3.7
 0 C  dz2             0.0       0.0       0.0       0.0       0.1       0.1
 0 C  dx2y2           0.0       0.0       0.1       0.0       0.0       0.0
 1 C  s               0.2       0.0       0.4       0.0       0.1       0.0
 1 C  pz              1.3      11.9       1.4       2.4       1.7       2.1
 1 C  px              6.8       3.7       2.9       5.8       4.1       0.0
 1 C  py              0.2       0.1       4.7       0.7       1.3       3.8
 2 C  s               0.4       0.1       0.2       0.2       0.2       0.1
 2 C  pz              0.0       4.0       0.0       0.3       6.1      10.9
 2 C  px              2.9       0.8       0.0       3.8       4.1       0.1
 2 C  py              3.4       0.6      19.0       1.5       1.6       1.7
 2 C  dz2             0.0       0.0       0.0       0.0       0.1       0.2
 2 C  dxz             0.0       0.0       0.0       0.2       0.0       0.0
 2 C  dx2y2           0.0       0.0       0.1       0.1       0.0       0.0
 3 C  s               0.1       0.8       0.0       0.3       0.1       0.2
 3 C  pz              5.0       3.4       0.4       0.2       0.0       2.0
 3 C  px              1.5       1.2       0.1       5.2       0.8       1.6
 3 C  py              8.9       0.1       0.3       1.5       1.7       1.3
 3 C  dz2             0.0       0.1       0.0       0.0       0.0       0.1
 3 C  dxz             0.1       0.0       0.0       0.0       0.1       0.1
 3 C  dyz             0.1       0.0       0.0       0.0       0.1       0.0
 3 C  dx2y2           0.0       0.0       0.2       0.0       0.0       0.0
 3 C  dxy             0.0       0.0       0.1       0.0       0.0       0.1
 4 O  s               1.7       2.4       0.1       0.0       0.0       0.6
 4 O  pz              1.9      15.1       0.1       0.2       0.5       7.5
 4 O  px              0.8       0.0       0.0       2.9       0.1       1.5
 4 O  py             10.0       1.1       0.4       1.9       4.2       0.3
 4 O  dz2             0.3       0.2       0.0       0.0       0.0       0.1
 4 O  dxz             0.0       0.0       0.0       0.2       0.0       0.1
 4 O  dyz             0.6       0.0       0.0       0.1       0.1       0.1
 4 O  dx2y2           0.0       0.2       0.1       0.0       0.0       0.0
 5 O  s               0.1       0.0       0.3       0.6       1.2       0.3
 5 O  pz              8.4       0.2       0.8       2.9       1.7       3.5
 5 O  px              0.5       0.2       2.5       0.3       0.0       0.7
 5 O  py             12.0       0.2       8.9       3.2       0.7       0.0
 5 O  dz2             0.5       0.0       0.2       0.0       0.0       0.1
 5 O  dxz             0.1       0.5       0.1       0.2       0.0       0.2
 5 O  dx2y2           0.1       0.0       0.6       0.0       0.6       0.2
 5 O  dxy             0.5       0.2       0.1       0.0       0.0       0.1
 6 C  s               0.9       0.0       0.3       0.0       0.0       0.1
 6 C  pz              0.9       6.8       0.3       4.6       0.3       0.0
 6 C  px              6.7       1.5       1.2       1.9       0.7       0.1
 6 C  py              0.3       3.7       6.1       0.1       0.2       0.2
 6 C  dxz             0.0       0.0       0.0       0.1       0.0       0.1
 6 C  dx2y2           0.2       0.0       0.1       0.0       0.0       0.0
 7 C  s               0.5       0.0       0.3       0.0       0.0       0.0
 7 C  pz              0.2       4.8       0.3      13.4       7.9       9.2
 7 C  px              1.3       1.7      11.3       0.0       5.2       4.4
 7 C  py              4.6       1.9       0.4       4.0       3.7       0.8
 7 C  dxy             0.1       0.0       0.1       0.1       0.0       0.0
 8 H  s               1.4       0.0       5.1       0.4       5.7       0.0
 8 H  px              0.0       0.0       0.1       0.0       0.1       0.0
 9 H  s               0.5       2.3       0.0       6.1       1.1       1.1
 9 H  pz              0.0       0.0       0.0       0.0       0.2       0.0
10 H  s               0.1       1.6       0.1       1.1       4.9       7.2
10 H  pz              0.0       0.0       0.0       0.0       0.1       0.1
11 H  s               1.5       3.5       0.5       2.4       0.1       0.9
12 H  s               1.0       3.4       0.7       1.0       0.2       0.3
13 H  s               0.3       1.2       0.6       0.0       4.9       7.2
13 H  pz              0.0       0.0       0.1       0.0       0.1       0.1
14 H  s               0.4       0.3       9.2       1.5       0.4       0.4
14 H  py              0.0       0.0       0.2       0.0       0.0       0.0
15 H  s               2.3       3.7       0.4       1.3       0.0       0.0
15 H  py              0.1       0.1       0.0       0.1       0.0       0.0
16 H  s               0.0       2.1       0.2       1.7       0.0       0.0
17 H  s               0.3       1.4       0.1       3.6       4.0       4.1
18 H  s               0.4       0.2       4.4       0.2       6.5       5.4
18 H  px              0.0       0.0       0.1       0.0       0.1       0.1
19 H  s               1.7       2.1       0.0       5.2       0.3       0.0
19 H  py              0.0       0.1       0.0       0.1       0.0       0.0

                     24        25        26        27        28        29   
                  -0.35050  -0.34045  -0.31064  -0.30505  -0.30351  -0.30075
                   2.00000   2.00000   2.00000   2.00000   2.00000   2.00000
                  --------  --------  --------  --------  --------  --------
 0 C  s               0.1       0.1       0.1       0.5       0.0       0.1
 0 C  pz              0.4       0.3       0.0       0.8      16.6       0.6
 0 C  px              2.4       4.6      10.3       3.3       0.8       3.9
 0 C  py              3.1       3.3       1.4      19.9       0.1       1.9
 0 C  dz2             0.0       0.0       0.0       0.0       0.2       0.0
 0 C  dxz             0.0       0.1       0.1       0.0       0.0       0.1
 0 C  dyz             0.0       0.0       0.0       0.0       0.5       0.0
 0 C  dx2y2           0.1       0.0       0.0       0.2       0.0       0.0
 0 C  dxy             0.0       0.0       0.3       0.1       0.0       0.1
 1 C  s               0.2       0.0       0.2       0.0       0.0       0.2
 1 C  pz              0.1       0.0       0.1       0.1      23.3       1.2
 1 C  px              0.1       0.2      10.2       2.4       0.9       7.5
 1 C  py              2.9       3.8       1.5      17.9       0.1       1.7
 1 C  dz2             0.0       0.0       0.0       0.1       0.4       0.1
 1 C  dxz             0.0       0.0       0.2       0.1       0.0       0.1
 1 C  dyz             0.0       0.0       0.0       0.0       0.5       0.0
 1 C  dx2y2           0.0       0.0       0.0       0.5       0.1       0.0
 1 C  dxy             0.0       0.0       0.3       0.0       0.0       0.2
 2 C  s               0.0       0.3       0.6       0.2       0.1       0.1
 2 C  pz              0.1       0.7       2.8       0.2       3.3       1.7
 2 C  px              0.8       1.2       3.9       2.4       0.7       6.4
 2 C  py              0.1       0.5       0.0      17.1       0.1       0.3
 2 C  dz2             0.0       0.0       0.0       0.1       0.2       0.0
 2 C  dx2y2           0.0       0.0       0.0       0.4       0.1       0.0
 3 C  s               0.1       0.0       0.1       0.0       0.2       0.5
 3 C  pz              1.6       1.2       0.1       0.1       0.6       1.2
 3 C  px              1.3       0.5       0.9       0.0       0.5       0.2
 3 C  py              4.7       0.3       0.8       0.5       0.0       0.2
 3 C  dz2             0.3       0.3       0.1       0.0       0.1       0.1
 3 C  dxz             0.2       0.0       0.0       0.0       0.0       0.1
 3 C  dyz             0.1       0.1       0.0       0.1       0.0       0.1
 3 C  dx2y2           0.0       0.1       0.1       0.1       0.0       0.0
 4 O  s               0.1       0.3       0.0       0.0       0.1       0.2
 4 O  pz              0.2       3.2       0.3       0.5       0.5       2.0
 4 O  px              6.8       0.0       2.6       0.8       0.3       0.1
 4 O  py             14.3       0.5       0.1       4.9       2.2       0.0
 4 O  dz2             0.1       0.1       0.0       0.0       0.1       0.1
 4 O  dyz             0.1       0.0       0.0       0.0       0.0       0.1
 4 O  dxy             0.0       0.1       0.1       0.0       0.0       0.1
 5 O  s               0.6       0.4       0.2       0.0       0.0       2.0
 5 O  pz              2.8      11.2       1.9       0.0       1.3      16.5
 5 O  px              0.0       5.0       0.2       0.6       0.0       1.8
 5 O  py              0.2       0.4       0.2       0.6       0.0       0.0
 5 O  dz2             0.1       0.0       0.2       0.0       0.2       1.1
 5 O  dxz             0.0       0.0       0.3       0.1       0.1       0.1
 5 O  dyz             0.0       0.0       0.3       0.0       0.0       0.0
 5 O  dx2y2           1.0       0.0       0.0       0.0       0.0       0.2
 5 O  dxy             0.7       0.1       0.1       0.0       0.0       0.6
 6 C  s               0.1       0.3       0.0       0.0       0.0       0.2
 6 C  pz              0.2       0.2       8.3       0.2       0.2      10.6
 6 C  px              5.5       2.3       1.1       0.6       0.0       0.2
 6 C  py             11.7       2.3       1.5       0.3       0.0       0.0
 6 C  dz2             0.0       0.0       0.2       0.0       0.0       0.5
 6 C  dyz             0.0       0.1       0.2       0.0       0.0       0.2
 6 C  dx2y2           0.0       0.4       0.1       0.0       0.0       0.0
 6 C  dxy             0.1       0.1       0.0       0.0       0.0       0.1
 7 C  s               0.3       0.0       0.0       0.0       0.0       0.0
 7 C  pz              4.9       1.3       6.6       0.2       0.1       5.5
 7 C  px              2.8      13.1       0.8       1.0       0.0       0.1
 7 C  py             13.7      11.3       1.2       0.1       0.0       0.0
 7 C  dz2             0.2       0.0       0.1       0.0       0.0       0.1
 7 C  dyz             0.0       0.1       0.2       0.0       0.0       0.1
 7 C  dx2y2           0.0       0.3       0.1       0.0       0.0       0.0
 7 C  dxy             0.1       0.0       0.0       0.0       0.0       0.0
 8 H  s               2.2       0.6       4.2       5.9       0.7       2.2
 8 H  py              0.0       0.0       0.0       0.1       0.0       0.0
 9 H  s               0.0       3.8       5.7       0.0       5.6       1.8
 9 H  py              0.0       0.0       0.0       0.2       0.0       0.0
10 H  s               0.0       0.0       0.1       0.1      11.4       0.9
10 H  py              0.0       0.0       0.0       0.2       0.0       0.0
11 H  s               0.3       0.8       6.1       0.1       6.8       3.2
11 H  px              0.0       0.0       0.0       0.0       0.1       0.0
11 H  py              0.0       0.0       0.0       0.2       0.0       0.0
12 H  s               0.0       0.2       0.4       1.1      15.9       1.6
12 H  pz              0.0       0.0       0.0       0.1       0.1       0.0
12 H  py              0.0       0.0       0.0       0.1       0.0       0.0
13 H  s               0.1       0.1       1.0       1.7       3.1       1.1
14 H  s               0.1       0.1       0.1      11.1       0.0       0.4
15 H  s               2.6       2.9       5.8       0.0       0.0       2.2
16 H  s               1.0       0.0       5.7       0.2       0.2       8.3
17 H  s               5.2       0.3       4.1       0.2       0.1       4.1
17 H  pz              0.1       0.0       0.0       0.0       0.0       0.0
17 H  py              0.0       0.1       0.0       0.0       0.0       0.0
[...]
 4 O  dz2             0.2       1.5       0.0      26.2       0.0       0.0
 4 O  dxz             8.2       0.0       1.6       1.8       0.0       0.0
 4 O  dyz             2.8       0.5       0.2       5.1       0.0       0.0
 4 O  dx2y2           0.1       0.0       0.4       0.1       0.0       0.0
 4 O  dxy             1.3       0.1       0.1       0.2       0.0       0.0
 5 O  s               3.4      26.7       6.1       1.1       0.0       0.0
 5 O  pz              3.6       6.8       2.2       0.2       0.0       0.0
 5 O  px              0.1       7.3      21.5       0.5       0.0       0.0
 5 O  py              0.7       0.1       7.7       0.1       0.0       0.0
 5 O  dz2             4.5       1.8       0.0       0.1       0.0       0.0
 5 O  dxz             0.0       2.6      17.3       0.6       0.0       0.0
 5 O  dyz             1.7       0.0       7.3       0.1       0.0       0.0
 5 O  dx2y2           0.6       9.6       0.0       0.6       0.0       0.0
 5 O  dxy             0.0      10.6       4.9       0.7       0.0       0.0
 6 C  s               0.1       1.4       0.5       0.1       3.4       0.7
 6 C  pz              0.9       1.2       0.5       0.1       0.0       0.0
 6 C  px              0.2       5.3       1.4       0.3       0.0       0.0
 6 C  py              0.1       1.2       0.2       0.0       0.0       0.0
 6 C  dz2             2.1       0.9       0.4       0.1       0.0       0.0
 6 C  dxz             0.2       5.2       1.0       0.3       0.0       0.0
 6 C  dyz             0.8       0.8       0.2       0.0       0.0       0.0
 6 C  dx2y2           0.1       4.4       0.9       0.2       0.0       0.0
 6 C  dxy             0.2       1.8       0.3       0.0       0.0       0.0
 7 C  s               0.0       0.0       0.0       0.0       6.3      92.7
 7 C  pz              0.4       0.0       0.0       0.0       0.0       0.0
 7 C  dz2             1.3       0.0       0.0       0.0       0.0       0.0
 7 C  dxz             0.0       0.1       0.0       0.0       0.0       0.0
 7 C  dyz             0.6       0.0       0.0       0.0       0.0       0.0
 7 C  dx2y2           0.0       0.3       0.0       0.0       0.0       0.0
 7 C  dxy             0.1       0.1       0.0       0.0       0.0       0.0
 8 H  s               0.2       0.0       0.0       0.0       0.0       0.0
 8 H  px              0.3       0.0       0.0       0.0       0.0       0.0
 9 H  s               0.7       0.0       0.0       0.0       0.0       0.0
 9 H  pz              0.6       0.0       0.0       0.0       0.0       0.0
 9 H  px              0.7       0.0       0.0       0.0       0.0       0.0
 9 H  py              0.5       0.0       0.0       0.0       0.0       0.0
10 H  s               0.1       0.0       0.0       0.0       0.0       0.0
10 H  pz              0.2       0.0       0.0       0.0       0.0       0.0
10 H  py              0.1       0.0       0.0       0.0       0.0       0.0
11 H  s               1.2       0.0       0.0       0.0       0.0       0.0
11 H  pz              0.6       0.0       0.0       0.0       0.0       0.0
11 H  px              2.0       0.0       0.0       0.0       0.0       0.0
11 H  py              0.3       0.0       0.0       0.0       0.0       0.0
12 H  s               0.6       0.0       0.0       0.0       0.0       0.0
12 H  pz              1.3       0.0       0.0       0.0       0.0       0.0
12 H  py              0.3       0.0       0.0       0.0       0.0       0.0
13 H  s               2.5       0.0       0.1       0.0       0.0       0.0
13 H  pz              5.7       0.1       0.0       0.0       0.0       0.0
13 H  px              0.2       0.0       0.1       0.0       0.0       0.0
13 H  py              0.6       0.0       0.0       0.0       0.0       0.0
14 H  s               0.2       0.0       0.0       0.0       0.0       0.0
14 H  py              0.2       0.0       0.0       0.0       0.0       0.0
15 H  s               0.6       0.4       0.1       0.0       0.0       0.0
15 H  pz              0.3       0.7       0.1       0.0       0.0       0.0
15 H  px              0.0       0.1       0.0       0.0       0.0       0.0
15 H  py              1.1       0.4       0.1       0.0       0.0       0.0
16 H  s               0.7       0.3       0.1       0.0       0.0       0.0
16 H  pz              1.6       0.4       0.1       0.0       0.0       0.0
16 H  px              0.8       0.3       0.2       0.0       0.0       0.0
17 H  s               0.5       0.0       0.0       0.0       0.0       0.0
17 H  pz              1.2       0.0       0.0       0.0       0.0       0.0
18 H  s               0.0       0.1       0.0       0.0       0.0       0.0
18 H  px              0.0       0.2       0.0       0.0       0.0       0.0
19 H  s               0.2       0.0       0.0       0.0       0.0       0.0
19 H  py              0.2       0.1       0.0       0.0       0.0       0.0

                    216       217       218       219       220       221   
                  22.02325  22.03134  22.09709  22.28048  43.68544  43.77265
                   0.00000   0.00000   0.00000   0.00000   0.00000   0.00000
                  --------  --------  --------  --------  --------  --------
 0 C  s               1.4       9.5       0.3       0.2       0.0       0.0
 1 C  s              83.5      10.7       0.0       5.4       0.0       0.0
 2 C  s               5.9      36.1      49.3       0.5       0.0       0.0
 3 C  s               4.0       1.6       0.4      93.0       0.0       0.0
 4 O  s               0.0       0.0       0.0       0.2      97.3       2.6
 4 O  pz              0.0       0.0       0.0       0.1       0.0       0.0
 5 O  s               0.0       0.0       0.1       0.1       2.6      97.3
 6 C  s               4.9      41.1      49.5       0.0       0.0       0.0
 7 C  s               0.0       0.6       0.0       0.0       0.0       0.0



                      *****************************
                      * MAYER POPULATION ANALYSIS *
                      *****************************

  NA   - Mulliken gross atomic population
  ZA   - Total nuclear charge
  QA   - Mulliken gross atomic charge
  VA   - Mayer's total valence
  BVA  - Mayer's bonded valence
  FA   - Mayer's free valence

  ATOM       NA         ZA         QA         VA         BVA        FA
  0 C      6.5296     6.0000    -0.5296     3.8094     3.8094     0.0000
  1 C      6.2267     6.0000    -0.2267     3.6334     3.6334     0.0000
  2 C      6.3162     6.0000    -0.3162     3.6623     3.6623    -0.0000
  3 C      5.6099     6.0000     0.3901     3.7776     3.7776    -0.0000
  4 O      8.5126     8.0000    -0.5126     1.8720     1.8720    -0.0000
  5 O      8.1952     8.0000    -0.1952     1.9222     1.9222     0.0000
  6 C      6.1456     6.0000    -0.1456     3.6446     3.6446     0.0000
  7 C      6.4917     6.0000    -0.4917     3.8213     3.8213     0.0000
  8 H      0.8386     1.0000     0.1614     0.9580     0.9580     0.0000
  9 H      0.8372     1.0000     0.1628     0.9599     0.9599    -0.0000
 10 H      0.8376     1.0000     0.1624     0.9592     0.9592     0.0000
 11 H      0.8361     1.0000     0.1639     0.9561     0.9561    -0.0000
 12 H      0.8444     1.0000     0.1556     0.9617     0.9617    -0.0000
 13 H      0.8203     1.0000     0.1797     0.9577     0.9577    -0.0000
 14 H      0.8068     1.0000     0.1932     0.9480     0.9480    -0.0000
 15 H      0.8266     1.0000     0.1734     0.9469     0.9469     0.0000
 16 H      0.8274     1.0000     0.1726     0.9565     0.9565    -0.0000
 17 H      0.8347     1.0000     0.1653     0.9583     0.9583     0.0000
 18 H      0.8299     1.0000     0.1701     0.9584     0.9584    -0.0000
 19 H      0.8327     1.0000     0.1673     0.9573     0.9573     0.0000

  Mayer bond orders larger than 0.100000
B(  0-C ,  1-C ) :   0.8968 B(  0-C ,  8-H ) :   0.9657 B(  0-C ,  9-H ) :   0.9708 
B(  0-C , 10-H ) :   0.9781 B(  1-C ,  2-C ) :   0.8732 B(  1-C , 11-H ) :   0.9617 
B(  1-C , 12-H ) :   0.9727 B(  2-C ,  3-C ) :   0.9438 B(  2-C , 13-H ) :   0.9952 
B(  2-C , 14-H ) :   0.9293 B(  3-C ,  4-O ) :   1.7618 B(  3-C ,  5-O ) :   1.0718 
B(  5-O ,  6-C ) :   0.8001 B(  6-C ,  7-C ) :   0.9390 B(  6-C , 15-H ) :   0.9513 
B(  6-C , 16-H ) :   0.9625 B(  7-C , 17-H ) :   0.9698 B(  7-C , 18-H ) :   0.9606 
B(  7-C , 19-H ) :   0.9688 

-------
TIMINGS
-------

Total SCF time: 0 days 0 hours 0 min 35 sec 

Total time                  ....      35.847 sec
Sum of individual times     ....      34.850 sec  ( 97.2%)

SCF preparation             ....       0.408 sec  (  1.1%)
Fock matrix formation       ....      32.757 sec  ( 91.4%)
  Startup                   ....       0.087 sec  (  0.3% of F)
  Split-RI-J                ....       5.317 sec  ( 16.2% of F)
  XC integration            ....      20.771 sec  ( 63.4% of F)
    Basis function eval.    ....       3.600 sec  ( 17.3% of XC)
    Density eval.           ....       5.955 sec  ( 28.7% of XC)
    XC-Functional eval.     ....       2.602 sec  ( 12.5% of XC)
    XC-Potential eval.      ....       6.733 sec  ( 32.4% of XC)
  CPCM terms                ....       5.915 sec  ( 18.1% of F)
Diagonalization             ....       0.000 sec  (  0.0%)
Density matrix formation    ....       0.295 sec  (  0.8%)
Total Energy calculation    ....       0.065 sec  (  0.2%)
Population analysis         ....       0.269 sec  (  0.7%)
Orbital Transformation      ....       0.097 sec  (  0.3%)
Orbital Orthonormalization  ....       0.000 sec  (  0.0%)
DIIS solution               ....       0.902 sec  (  2.5%)
  MO trafo                  ....       0.000 sec  (  0.0 % of DIIS)
  Orb grad                  ....       0.000 sec  (  0.0 % of DIIS)
  Energy W gradient         ....       0.000 sec  (  0.0 % of DIIS)
  DIIS error                ....       0.026 sec  (  2.9 % of DIIS)
  DIIS work                 ....       0.789 sec  ( 87.5 % of DIIS)
  Form Q                    ....       0.000 sec  (  0.0 % of DIIS)
  Form QpQm                 ....       0.000 sec  (  0.0 % of DIIS)
  Exp/Cayley                ....       0.000 sec  (  0.0 % of DIIS)
  Orb update                ....       0.000 sec  (  0.0 % of DIIS)
  Wake-sleep                ....       0.032 sec  (  3.6 % of DIIS)
SOSCF solution              ....       0.057 sec  (  0.2%)
  MO trafo                  ....       0.045 sec  ( 78.2 % of SOSCF)
  Orb grad                  ....       0.001 sec  (  1.0 % of SOSCF)
  Rot update                ....       0.000 sec  (  0.1 % of SOSCF)
  Step                      ....       0.012 sec  ( 20.6 % of SOSCF)
Finished LeanSCF after  36.0 sec

Maximum memory used throughout the entire LEANSCF-calculation: 30.4 MB


-------------------------------------------------------------------------------
                          DFT DISPERSION CORRECTION                            
                                                                               
                                DFTD4 V3.4.0                                   
-------------------------------------------------------------------------------
The R2SCAN3C composite method is recognized
Using three-body term ABC
Active option DFTDOPT                   ...         5   

-------------------------   ----------------
Dispersion correction           -0.005135553
-------------------------   ----------------

------------------   -----------------
gCP correction             0.011737003
------------------   -----------------

-------------------------   --------------------
FINAL SINGLE POINT ENERGY      -386.241457355019
-------------------------   --------------------


------------------------------------------------------------------------------
                              ORCA PROPERTY CALCULATIONS
------------------------------------------------------------------------------

GBWName                                 ... sp_solv.gbw
Number of atoms                         ...     20
Number of basis functions               ...    222
Max core memory                         ...   1024 MB

Electric properties:
Dipole moment                           ... YES
Quadrupole moment                       ...  NO
Static polarizability (Dipole/Dipole)   ...  NO
Static polarizability (Dipole/Quad.)    ...  NO
Static polarizability (Quad./Quad.)     ...  NO
Static polarizability (Velocity)        ...  NO

Atomic electric properties:
Dipole moment                           ...  NO
Quadrupole moment                       ...  NO
Static polarizability                   ...  NO

Choice of electric origin               ... Center of mass
Position of electric origin             ...    -0.000009    -0.000006     0.000008

General magnetic properties:
Magnetizability                         ...  NO

EPR properties:
g-Tensor (aka g-matrix)                 ...  NO
Zero-Field splitting spin-orbit         ...  NO
Zero-field splitting spin-spin          ...  NO
Hyperfine couplings                     ...  NO (   0 nuclei)
Quadrupole couplings                    ...  NO (   0 nuclei)
Contact density                         ...  NO (   0 nuclei)

NMR properties:
Chemical shifts                         ...  NO (   0 nuclei)
Spin-rotation constants                 ...  NO (   0 nuclei)
Spin-spin couplings                     ...  NO (   0 nuclei,    0 pairs)

Choice of magnetic origin               ... GIAO
Position of magnetic origin             ...     0.000000     0.000000     0.000000

Properties with geometric perturbations:
SCF Hessian                             ...  NO
IR spectrum                             ...  NO
VCD spectrum                            ...  NO
X-ray spectroscopy properties:
SCF XES/XAS/RIXS spectra                ...  NO


-------------
DIPOLE MOMENT
-------------

Method             : SCF
Type of density    : Electron Density
Multiplicity       :   1
Irrep              :   0
Energy             :  -386.2480588051748214 Eh
Relativity type    : 
Basis              : AO
                                X                 Y                 Z
Electronic contribution:      1.812548572       1.741414592      -0.831848133
Nuclear contribution   :     -1.611341649      -2.126098654       1.823025371
                        -----------------------------------------
Total Dipole Moment    :      0.201206923      -0.384684062       0.991177238
                        -----------------------------------------
Magnitude (a.u.)       :      1.082080575
Magnitude (Debye)      :      2.750430242



--------------------
Rotational spectrum 
--------------------
 
Rotational constants in cm-1:             0.153209             0.034289             0.032849 
Rotational constants in MHz :          4593.094184          1027.958043           984.777646 

Dipole components along the rotational axes: 
x,y,z [a.u.] :     0.186167    -0.766860     0.740383 
x,y,z [Debye]:     0.473199    -1.949202     1.881903 

 

Dipole moment calculation done in   0.0 sec 

Maximum memory used throughout the entire PROP-calculation: 13.8 MB

--------------------------------
SUGGESTED CITATIONS FOR THIS RUN
--------------------------------

Below you find a list of papers that are relevant to this ORCA run
We neither can nor want to force you to cite these papers, but we appreciate if you do
You receive ORCA, which is the product of decades of hard work by many enthusiastic individuals, for free
The only thing we kindly ask in return is that you cite our papers,
We deeply appreciate it, if you show your appreciation for ORCA by not just citing the generic ORCA reference.

Please note that relegating all ORCA citations to the supporting information does *not* help us.
SI sections are not indexed - citations you put there will not count into any citation statistics
But we need these citations in order to attract the funding resources that allow us to do what we are doing

Therefore, if you are a happy ORCA user, please consider citing a few of the papers listed below in the main body of your paper

In addition to the list printed below, the program has created the file sp_solv.bibtex that contains the list in bibtex format
You can import this file easily into all common literature databanks and citation aid programs


List of essential papers. We consider these as the minimum necessary citations

  1. Neese,F.
     Software update: the ORCA program system, version 5.0
     WIRES Comput. Molec. Sci., 2022 12(1)e1606
     doi.org/10.1002/wcms.1606
  2. Grimme,S.; Hansen,A.; Ehlert,S.; Mewes,J.
     r2SCAN-3c: A 'Swiss army knife' composite electronic-structure method
     J. Chem. Phys., 2021 154 064103
     doi.org/10.1063/5.0040021

List of papers to cite with high priority. The work reported in these papers was absolutely
necessary for this run to complete.
Our perspective: the developers of density functionals and basis sets usually get cited in chemistry papers
Good! But without the algorithms to do something with them, the functionals or basis sets would not do anything.
Hence, in our opinion, the algorithm design and method developments papers are equally worthy of getting cited

  1. Neese,F.
     An improvement of the resolution of the identity approximation for the formation of the Coulomb matrix
     J. Comp. Chem., 2003 24(14)1740-1747
     doi.org/10.1002/jcc.10318
  2. Garcia-Rates,M.; Neese,F.
     Effect of the Solute Cavity on the Solvation Energy and its Derivatives within the Framework of the Gaussian Charge Scheme
     J. Comput. Chem., 2020 41 922-939
     doi.org/10.1002/jcc.26139
  3. Neese,F.
     The SHARK Integral Generation and Digestion System
     J. Comp. Chem., 2022  1-16
     doi.org/10.1002/jcc.26942
  4. Lehtola,S.; Steigemann,C.; Oliveira,M.; Marques,M.
     Recent developments in Libxc - A comprehensive library of functionals for density functional theory
     Software X, 2018 7 
     doi.org/10.1016/j.softx.2017.11.002
  5. Caldeweyher,E.; Bannwarth,C.; Grimme,S.
     Extension of the D3 dispersion coefficient model
     J. Chem. Phys., 2017 147 034112-XXXX
     doi.org/10.1063/1.4993215
  6. Caldeweyher,E.; Ehlert,S.; Hansen,A.; Neugebauer,H.; Spicher,S.; Bannwarth,C.; Grimme,S.
     A generally applicable atomic-charge dependent London dispersion correction
     J. Chem. Phys., 2019 150 154122-XXXX
     doi.org/10.1063/1.5090222
  7. Caldeweyher,E.; Mewes,J.; Ehlert,S.; Grimme,S.
     Extension and evaluation of the D4 London-dispersion model for periodic systems
     Phys. Chem. Chem. Phys., 2020 22(16)8499-8512
     doi.org/10.1039/D0CP00502A

List of suggested additional citations. These are papers that are important in the 'surrounding' of 
of this run, or papers that preceded the highly important papers. If you like your results we are grateful for a citation.

  1. Neese,F.
     The ORCA program system
     WIRES Comput. Molec. Sci., 2012 2(1)73-78
     doi.org/10.1002/wcms.81
  2. Neese,F.
     Software update: the ORCA program system, version 4.0
     WIRES Comput. Molec. Sci., 2018 8(1)1-6
     doi.org/10.1002/wcms.1327
  3. Neese,F.; Wennmohs,F.; Becker,U.; Riplinger,C.
     The ORCA quantum chemistry program package
     J. Chem. Phys., 2020 152 Art. No. L224108
     doi.org/10.1063/5.0004608

List of optional additional citations

  1. Neese,F.
     Approximate second-order SCF convergence for spin unrestricted wavefunctions
     Chem. Phys. Lett., 2000 325(1-3)93-98
     doi.org/10.1016/s0009-2614(00)00662-x

Timings for individual modules:

Sum of individual times          ...       38.018 sec (=   0.634 min)
Startup calculation              ...        1.451 sec (=   0.024 min)   3.8 %
SCF iterations                   ...       36.435 sec (=   0.607 min)  95.8 %
Property calculations            ...        0.131 sec (=   0.002 min)   0.3 %
                             ****ORCA TERMINATED NORMALLY****
TOTAL RUN TIME: 0 days 0 hours 0 minutes 39 seconds 128 msec
