13
 energy: -20.960069942050 gnorm: 0.039364641150 xtb: 6.7.1 (edcfbbe)
C           -2.73779049190089        0.14851065076108       -0.05168522079169
C           -1.30953054747585        0.20599623379969        0.47970726322113
C           -0.32819888513788       -0.14553668512644       -0.63676665033417
N            1.06991917374646       -0.08690305907175       -0.09019542512201
O            1.65465139230467        0.99134694174810       -0.11923479975811
O            1.53643830809263       -1.10593672059574        0.40931959014549
H           -2.98318582472267       -0.85430137606793       -0.41539104823909
H           -3.44519800143304        0.40418906685405        0.74209183557451
H           -2.88075554077164        0.85570453837159       -0.87488812367431
H           -1.18078021018605       -0.50171637363619        1.30544656848283
H           -1.08156267979611        1.20987849065950        0.85315809479430
H           -0.47713432206469       -1.16402139883296       -0.99883908929318
H           -0.37297001696751        0.57630442425066       -1.45387315054672
13
 energy: -20.961545586809 gnorm: 0.016590491964 xtb: 6.7.1 (edcfbbe)
C           -2.73337213679867        0.14857370943626       -0.05094870815514
C           -1.30572909593307        0.20446116755707        0.47467967429489
C           -0.31612822119124       -0.14645399207637       -0.63673902502689
N            1.05364986402861       -0.08401366741897       -0.08296644918374
O            1.63784655847497        0.98202987116093       -0.12414499801510
O            1.52068593266673       -1.09772534247113        0.40051171409713
H           -2.97257219414414       -0.85006823530671       -0.41131928994902
H           -3.43323422900576        0.40305004413449        0.74203207523448
H           -2.87088101940904        0.85375783635202       -0.86838451615219
H           -1.18615503108401       -0.50171767427392        1.29957322011178
H           -1.08654066200519        1.20738374187387        0.84817563711137
H           -0.47417547652780       -1.16446776050916       -0.99280835013344
H           -0.36949193538396        0.57870503465529       -1.44881113977515
13
 energy: -20.961658948850 gnorm: 0.015234222563 xtb: 6.7.1 (edcfbbe)
C           -2.72696025314321        0.14840341451932       -0.05078381819217
C           -1.29759219298043        0.20314000282020        0.47157773265117
C           -0.30380206893681       -0.14861423175780       -0.64144221848381
N            1.04787181398293       -0.08891990853295       -0.10431077699756
O            1.61161127882509        0.98219891763061       -0.10817458495884
O            1.49534393837008       -1.08679495234750        0.41452088905228
H           -2.96426790643811       -0.84746758308190       -0.40910327694976
H           -3.41924397522176        0.40219046656495        0.74423458529498
H           -2.86324833955694        0.85302733486234       -0.86403868603033
H           -1.18011928735917       -0.50293661056846        1.29487455450217
H           -1.08014152136935        1.20525868023962        0.84385764527491
H           -0.48010777167427       -1.16511068313153       -0.99279962016658
H           -0.37544136081061        0.57913988589676       -1.44956258053750
13
 energy: -20.961892876597 gnorm: 0.005964743657 xtb: 6.7.1 (edcfbbe)
C           -2.72732009757208        0.14798181314415       -0.05280969657176
C           -1.29880309178537        0.20367557537789        0.47360954158286
C           -0.30359004837809       -0.14839554016294       -0.64009572950013
N            1.04008731237056       -0.08409635231765       -0.08702966850618
O            1.61694743210548        0.98157232604939       -0.11759847673021
O            1.50058957319129       -1.09089943026858        0.40657257247044
H           -2.96482180806193       -0.84868513839392       -0.41177997388976
H           -3.41981591357105        0.40167627177978        0.74314026619088
H           -2.86375653199385        0.85361157405461       -0.86649051372636
H           -1.17922501597962       -0.50294942603806        1.29666771734603
H           -1.07909223559290        1.20586407268082        0.84554910763459
H           -0.48091355135473       -1.16496654875803       -0.99198692811977
H           -0.37638366969026        0.57912553596620       -1.44889837372166
13
 energy: -20.961914399000 gnorm: 0.002328150719 xtb: 6.7.1 (edcfbbe)
C           -2.72801471757597        0.14834304912505       -0.05185950702825
C           -1.29942921608362        0.20361045052106        0.47353969583599
C           -0.30435331648933       -0.14878797938959       -0.64138498188781
N            1.04211003129737       -0.08470834082068       -0.08921107626293
O            1.61874373244657        0.98341055691590       -0.11582277891318
O            1.50231663995699       -1.09146580901576        0.40956672602346
H           -2.96554835109060       -0.84878616993122       -0.41175336017165
H           -3.42193943097617        0.40181547947166        0.74403913027294
H           -2.86441560545635        0.85449439584917       -0.86607977621038
H           -1.17910807180743       -0.50323414049155        1.29664183754741
H           -1.07886319307994        1.20587815194966        0.84551598311226
H           -0.48096200580673       -1.16533750497594       -0.99369820822857
H           -0.37663414164736        0.57828259390590       -1.45064383963033
13
 energy: -20.961918316231 gnorm: 0.000926313621 xtb: 6.7.1 (edcfbbe)
C           -2.72762525471734        0.14840863150264       -0.05190203153368
C           -1.29924137686008        0.20355325565880        0.47373260006607
C           -0.30353698103582       -0.14908170643616       -0.64181407919527
N            1.04104879973397       -0.08474305244645       -0.08990335044424
O            1.61772760232381        0.98369200099481       -0.11543615983119
O            1.50136291781673       -1.09091860522010        0.41061822455151
H           -2.96526047924514       -0.84853906853884       -0.41220341653676
H           -3.42149886372098        0.40150502140550        0.74413002953466
H           -2.86418291568976        0.85492988867222       -0.86576352703045
H           -1.17844058051732       -0.50349615873254        1.29654882861790
H           -1.07801793654503        1.20572775205200        0.84548377192287
H           -0.48129250128842       -1.16556806300978       -0.99373579255788
H           -0.37714007656719        0.57804483721156       -1.45090525310458
13
 energy: -20.961918928963 gnorm: 0.000422296989 xtb: 6.7.1 (edcfbbe)
C           -2.72740310138132        0.14856150559495       -0.05195193769036
C           -1.29937711419755        0.20342719643476        0.47392892695140
C           -0.30302146533718       -0.14941274791019       -0.64207091965777
N            1.04009606163515       -0.08457352104389       -0.09004166061767
O            1.61756130742190        0.98376632415793       -0.11584353115272
O            1.50124792958363       -1.09023392933318        0.41144699928595
H           -2.96516784719982       -0.84810770730799       -0.41303478765683
H           -3.42141165188050        0.40099785260897        0.74422796422910
H           -2.86415233604063        0.85573863764303       -0.86525465552132
H           -1.17816242344625       -0.50386804350029        1.29643422947007
H           -1.07743190964356        1.20546441968444        0.84554509871159
H           -0.48134666033646       -1.16595427098358       -0.99348118403187
H           -0.37752843548997        0.57770901706873       -1.45105469786060
13
 energy: -20.961919087374 gnorm: 0.000035826508 xtb: 6.7.1 (edcfbbe)
C           -2.72747296239007        0.14860459993224       -0.05196411759057
C           -1.29942235350074        0.20336930468449        0.47390148031389
C           -0.30324775722707       -0.14941277068080       -0.64194217840201
N            1.04039733374034       -0.08454842985639       -0.09004192197766
O            1.61781416329893        0.98369270655044       -0.11617794153792
O            1.50147366622381       -1.09011362295536        0.41145775136873
H           -2.96522179325036       -0.84799346336598       -0.41322423310983
H           -3.42150456508993        0.40090103098997        0.74423350712402
H           -2.86420283961464        0.85590920725226       -0.86514551651475
H           -1.17841160969360       -0.50392023063592        1.29644626865933
H           -1.07761112783166        1.20539440537823        0.84564388008020
H           -0.48120951167377       -1.16601765787587       -0.99333952843380
H           -0.37747828930382        0.57764965369635       -1.45099760552065
13
 energy: -20.961919113789 gnorm: 0.000023807554 xtb: 6.7.1 (edcfbbe)
C           -2.72747968975055        0.14868424647754       -0.05198721208725
C           -1.29943000850965        0.20327192278613        0.47392275768397
C           -0.30327907098950       -0.14949660358411       -0.64189119048912
N            1.04043292328174       -0.08447711969125       -0.09007361188660
O            1.61789014320617        0.98371999733001       -0.11662328210641
O            1.50149778369324       -1.08986342156182        0.41176875881351
H           -2.96519368109110       -0.84778353720458       -0.41362231473396
H           -3.42153955620603        0.40067881674158        0.74428083105232
H           -2.86418495850116        0.85628232308191       -0.86491363394253
H           -1.17852970069377       -0.50408308870082        1.29642747740278
H           -1.07758287229660        1.20525202226459        0.84577183378365
H           -0.48113057899598       -1.16615347793236       -0.99319498026633
H           -0.37756837945936        0.57748265310684       -1.45101558876506
