      -----------------------------------------------------------      
     |                   =====================                   |     
     |                           x T B                           |     
     |                   =====================                   |     
     |                         S. Grimme                         |     
     |          Mulliken Center for Theoretical Chemistry        |     
     |                    University of Bonn                     |     
      -----------------------------------------------------------      

   * xtb version 6.7.1 (edcfbbe) compiled by 'albert@albert-system' on 2024-07-22

   xtb is free software: you can redistribute it and/or modify it under
   the terms of the GNU Lesser General Public License as published by
   the Free Software Foundation, either version 3 of the License, or
   (at your option) any later version.
   
   xtb is distributed in the hope that it will be useful,
   but WITHOUT ANY WARRANTY; without even the implied warranty of
   MERCHANTABILITY or FITNESS FOR A PARTICULAR PURPOSE.  See the
   GNU Lesser General Public License for more details.
   
   Cite this work as:
   * C. Bannwarth, E. Caldeweyher, S. Ehlert, A. Hansen, P. Pracht,
     J. Seibert, S. Spicher, S. Grimme, WIREs Comput. Mol. Sci., 2020, 11,
     e01493. DOI: 10.1002/wcms.1493
   
   for GFN2-xTB:
   * C. Bannwarth, S. Ehlert and S. Grimme., J. Chem. Theory Comput., 2019,
     15, 1652-1671. DOI: 10.1021/acs.jctc.8b01176
   for GFN1-xTB:
   * S. Grimme, C. Bannwarth, P. Shushkov, J. Chem. Theory Comput., 2017,
     13, 1989-2009. DOI: 10.1021/acs.jctc.7b00118
   for GFN0-xTB:
   * P. Pracht, E. Caldeweyher, S. Ehlert, S. Grimme, ChemRxiv, 2019, preprint.
     DOI: 10.26434/chemrxiv.8326202.v1
   for GFN-FF:
   * S. Spicher and S. Grimme, Angew. Chem. Int. Ed., 2020, 59, 15665-15673.
     DOI: 10.1002/anie.202004239
   
   for ALPB and GBSA implicit solvation:
   * S. Ehlert, M. Stahn, S. Spicher, S. Grimme, J. Chem. Theory Comput.,
     2021, 17, 4250-4261. DOI: 10.1021/acs.jctc.1c00471
   
   for ddCOSMO and CPCM-X implicit solvation:
   * M. Stahn, S. Ehlert, S. Grimme, J. Phys. Chem. A,
     2023, XX, XXXX-XXXX. DOI: 10.1021/acs.jpca.3c04382
   
   for DFT-D4:
   * E. Caldeweyher, C. Bannwarth and S. Grimme, J. Chem. Phys., 2017,
     147, 034112. DOI: 10.1063/1.4993215
   * E. Caldeweyher, S. Ehlert, A. Hansen, H. Neugebauer, S. Spicher,
     C. Bannwarth and S. Grimme, J. Chem. Phys., 2019, 150, 154122.
     DOI: 10.1063/1.5090222
   * E. Caldeweyher, J.-M. Mewes, S. Ehlert and S. Grimme, Phys. Chem. Chem. Phys.
     2020, 22, 8499-8512. DOI: 10.1039/D0CP00502A
   
   for sTDA-xTB:
   * S. Grimme and C. Bannwarth, J. Chem. Phys., 2016, 145, 054103.
     DOI: 10.1063/1.4959605
   
   in the mass-spec context:
   * V. Asgeirsson, C. Bauer and S. Grimme, Chem. Sci., 2017, 8, 4879.
     DOI: 10.1039/c7sc00601b
   * J. Koopman and S. Grimme, ACS Omega 2019, 4, 12, 15120-15133.
     DOI: 10.1021/acsomega.9b02011
   
   for metadynamics refer to:
   * S. Grimme, J. Chem. Theory Comput., 2019, 155, 2847-2862
     DOI: 10.1021/acs.jctc.9b00143
   
   for SPH calculations refer to:
   * S. Spicher and S. Grimme, J. Chem. Theory Comput., 2021, 17, 1701-1714
     DOI: 10.1021/acs.jctc.0c01306
   
   for ONIOM refer to:
   * C. Plett, A. Katbashev, S. Ehlert, S. Grimme, M. Bursch,
     Phys. Chem. Chem. Phys., 2023, 25, 17860-17868. DOI: 10.1039/D3CP02178E
   
   for DIPRO refer to:
   * J. Kohn, N. Gildemeister, S. Grimme, D. Fazzi, A. Hansen,
     J. Chem. Phys., 2023, just accepted.
   
   for PTB refer to:
   * S. Grimme, M. Mueller, A. Hansen, J. Chem. Phys., 2023, 158, 124111.
     DOI: 10.1063/5.0137838
   
   with help from (in alphabetical order)
   P. Atkinson, C. Bannwarth, F. Bohle, G. Brandenburg, E. Caldeweyher
   M. Checinski, S. Dohm, S. Ehlert, S. Ehrlich, I. Gerasimov, C. Hölzer
   A. Katbashev, J. Kohn, J. Koopman, C. Lavigne, S. Lehtola, F. März, M. Müller,
   F. Musil, H. Neugebauer, J. Pisarek, C. Plett, P. Pracht, F. Pultar,
   J. Seibert, P. Shushkov, S. Spicher, M. Stahn, M. Steiner, T. Strunk,
   J. Stückrath, T. Rose, and J. Unsleber
   
 * started run on 2025/04/11 at 12:29:37.906     
   ID    Z sym.   atoms
    1    6 C      1-4
    2    7 N      5
    3    1 H      6-16

           -------------------------------------------------
          |                Calculation Setup                |
           -------------------------------------------------

          program call               : /srv/scratch/z5358697/.xtb/bin/xtb gas.coord --gfn2 --sp --chrg 0 --norestart --parallel 1
          hostname                   : k077
          coordinate file            : gas.coord
          omp threads                :                     1


           -------------------------------------------------
          |                 G F N 2 - x T B                 |
           -------------------------------------------------

        Reference                      10.1021/acs.jctc.8b01176
      * Hamiltonian:
        H0-scaling (s, p, d)           1.850000    2.230000    2.230000
        zeta-weighting                 0.500000
      * Dispersion:
        s8                             2.700000
        a1                             0.520000
        a2                             5.000000
        s9                             5.000000
      * Repulsion:
        kExp                           1.500000    1.000000
        rExp                           1.000000
      * Coulomb:
        alpha                          2.000000
        third order                    shell-resolved
        anisotropic                    true
        a3                             3.000000
        a5                             4.000000
        cn-shift                       1.200000
        cn-exp                         4.000000
        max-rad                        5.000000


          ...................................................
          :                      SETUP                      :
          :.................................................:
          :  # basis functions                  31          :
          :  # atomic orbitals                  31          :
          :  # shells                           21          :
          :  # electrons                        32          :
          :  max. iterations                   250          :
          :  Hamiltonian                  GFN2-xTB          :
          :  restarted?                      false          :
          :  GBSA solvation                  false          :
          :  PC potential                    false          :
          :  electronic temp.          300.0000000     K    :
          :  accuracy                    1.0000000          :
          :  -> integral cutoff          0.2500000E+02      :
          :  -> integral neglect         0.1000000E-07      :
          :  -> SCF convergence          0.1000000E-05 Eh   :
          :  -> wf. convergence          0.1000000E-03 e    :
          :  Broyden damping             0.4000000          :
          :  net charge                          0          :
          :  unpaired electrons                  0          :
          ...................................................

 iter      E             dE          RMSdq      gap      omega  full diag
   1    -17.2827139 -0.172827E+02  0.275E+00   11.15       0.0  T
   2    -17.3168678 -0.341539E-01  0.145E+00   11.45       1.0  T
   3    -17.3178668 -0.999015E-03  0.680E-01   11.51       1.0  T
   4    -17.3179649 -0.981259E-04  0.102E-01   11.47       1.0  T
   5    -17.3179799 -0.149550E-04  0.441E-02   11.45       1.0  T
   6    -17.3179812 -0.131110E-05  0.157E-02   11.45       1.6  T
   7    -17.3179813 -0.157202E-06  0.154E-03   11.45      16.2  T
   8    -17.3179814 -0.328900E-08  0.668E-04   11.45      37.4  T
   9    -17.3179814 -0.721744E-09  0.138E-04   11.45     180.8  T

   *** convergence criteria satisfied after 9 iterations ***

         #    Occupation            Energy/Eh            Energy/eV
      -------------------------------------------------------------
         1        2.0000           -0.6291010             -17.1187
       ...           ...                  ...                  ...
        10        2.0000           -0.4819076             -13.1134
        11        2.0000           -0.4638986             -12.6233
        12        2.0000           -0.4521347             -12.3032
        13        2.0000           -0.4419034             -12.0248
        14        2.0000           -0.4304851             -11.7141
        15        2.0000           -0.4227069             -11.5024
        16        2.0000           -0.3622850              -9.8583 (HOMO)
        17                          0.0585309               1.5927 (LUMO)
        18                          0.0795233               2.1639
        19                          0.1002238               2.7272
        20                          0.1162927               3.1645
        21                          0.1277934               3.4774
       ...                                ...                  ...
        31                          0.3139787               8.5438
      -------------------------------------------------------------
                  HL-Gap            0.4208159 Eh           11.4510 eV
             Fermi-level           -0.1518770 Eh           -4.1328 eV

 SCC (total)                   0 d,  0 h,  0 min,  0.009 sec
 SCC setup                      ...        0 min,  0.000 sec (  2.069%)
 Dispersion                     ...        0 min,  0.000 sec (  0.833%)
 classical contributions        ...        0 min,  0.000 sec (  0.218%)
 integral evaluation            ...        0 min,  0.001 sec ( 10.170%)
 iterations                     ...        0 min,  0.005 sec ( 52.378%)
 molecular gradient             ...        0 min,  0.003 sec ( 32.431%)
 printout                       ...        0 min,  0.000 sec (  1.713%)

         :::::::::::::::::::::::::::::::::::::::::::::::::::::
         ::                     SUMMARY                     ::
         :::::::::::::::::::::::::::::::::::::::::::::::::::::
         :: total energy             -17.080496325520 Eh    ::
         :: gradient norm              0.003560998872 Eh/a0 ::
         :: HOMO-LUMO gap             11.450983276554 eV    ::
         ::.................................................::
         :: SCC energy               -17.317963293754 Eh    ::
         :: -> isotropic ES            0.013156522296 Eh    ::
         :: -> anisotropic ES          0.005883602184 Eh    ::
         :: -> anisotropic XC          0.013191474272 Eh    ::
         :: -> dispersion             -0.008370488640 Eh    ::
         :: repulsion energy           0.237466968234 Eh    ::
         :: add. restraining           0.000000000000 Eh    ::
         :: total charge               0.000000000000 e     ::
         :::::::::::::::::::::::::::::::::::::::::::::::::::::

           -------------------------------------------------
          |                Property Printout                |
           -------------------------------------------------

    * Orbital Energies and Occupations

         #    Occupation            Energy/Eh            Energy/eV
      -------------------------------------------------------------
         1        2.0000           -0.6291010             -17.1187
       ...           ...                  ...                  ...
         4        2.0000           -0.5688886             -15.4802
         5        2.0000           -0.5571644             -15.1612
         6        2.0000           -0.5278865             -14.3645
         7        2.0000           -0.5127895             -13.9537
         8        2.0000           -0.5007673             -13.6266
         9        2.0000           -0.4861638             -13.2292
        10        2.0000           -0.4819076             -13.1134
        11        2.0000           -0.4638986             -12.6233
        12        2.0000           -0.4521347             -12.3032
        13        2.0000           -0.4419034             -12.0248
        14        2.0000           -0.4304851             -11.7141
        15        2.0000           -0.4227069             -11.5024
        16        2.0000           -0.3622850              -9.8583 (HOMO)
        17                          0.0585309               1.5927 (LUMO)
        18                          0.0795233               2.1639
        19                          0.1002238               2.7272
        20                          0.1162927               3.1645
        21                          0.1277934               3.4774
        22                          0.1410221               3.8374
        23                          0.1586463               4.3170
        24                          0.1724654               4.6930
        25                          0.1963917               5.3441
        26                          0.2184325               5.9439
        27                          0.2308488               6.2817
       ...                                ...                  ...
        31                          0.3139787               8.5438
      -------------------------------------------------------------
                  HL-Gap            0.4208159 Eh           11.4510 eV
             Fermi-level           -0.1518770 Eh           -4.1328 eV

     #   Z          covCN         q      C6AA      α(0)
     1   6 C        3.751    -0.098    22.443     6.756
     2   6 C        3.799    -0.052    21.508     6.603
     3   6 C        3.798    -0.068    21.803     6.648
     4   6 C        3.730     0.015    20.415     6.450
     5   7 N        2.628    -0.346    28.924     7.987
     6   1 H        0.925     0.031     2.569     2.506
     7   1 H        0.925     0.035     2.511     2.478
     8   1 H        0.925     0.031     2.575     2.509
     9   1 H        0.924     0.027     2.626     2.534
    10   1 H        0.924     0.029     2.596     2.520
    11   1 H        0.924     0.029     2.601     2.522
    12   1 H        0.924     0.026     2.641     2.541
    13   1 H        0.924     0.036     2.504     2.475
    14   1 H        0.924     0.030     2.589     2.516
    15   1 H        0.860     0.133     1.520     1.932
    16   1 H        0.860     0.141     1.462     1.894

 Mol. C6AA /au·bohr⁶  :       1662.247391
 Mol. C8AA /au·bohr⁸  :      33696.366639
 Mol. α(0) /au        :         60.872359


Wiberg/Mayer (AO) data.
largest (>0.10) Wiberg bond orders for each atom

 ---------------------------------------------------------------------------
     #   Z sym  total        # sym  WBO       # sym  WBO       # sym  WBO
 ---------------------------------------------------------------------------
     1   6 C    3.998 --     2 C    1.020     6 H    0.988     8 H    0.987
                             7 H    0.984
     2   6 C    3.998 --     1 C    1.020     3 C    1.009     9 H    0.978
                            10 H    0.978
     3   6 C    3.997 --     2 C    1.009     4 C    0.990    12 H    0.979
                            11 H    0.976
     4   6 C    3.986 --     5 N    1.030     3 C    0.990    14 H    0.977
                            13 H    0.974
     5   7 N    3.010 --     4 C    1.030    15 H    0.969    16 H    0.962
     6   1 H    0.999 --     1 C    0.988
     7   1 H    0.999 --     1 C    0.984
     8   1 H    0.999 --     1 C    0.987
     9   1 H    0.999 --     2 C    0.978
    10   1 H    0.999 --     2 C    0.978
    11   1 H    0.999 --     3 C    0.976
    12   1 H    0.999 --     3 C    0.979
    13   1 H    0.999 --     4 C    0.974
    14   1 H    0.999 --     4 C    0.977
    15   1 H    0.982 --     5 N    0.969
    16   1 H    0.980 --     5 N    0.962
 ---------------------------------------------------------------------------

Topologies differ in total number of bonds
Writing topology from bond orders to xtbtopo.mol

molecular dipole:
                 x           y           z       tot (Debye)
 q only:        0.194      -0.023       0.120
   full:        0.480      -0.092       0.371       1.559
molecular quadrupole (traceless):
                xx          xy          yy          xz          yz          zz
 q only:       -1.454      -0.262       1.278      -1.325      -0.233       0.176
  q+dip:       -3.426      -0.803       2.120      -3.129      -1.367       1.306
   full:       -3.418      -0.689       2.440      -3.272      -1.037       0.979


           -------------------------------------------------
          | TOTAL ENERGY              -17.080496325520 Eh   |
          | GRADIENT NORM               0.003560998872 Eh/α |
          | HOMO-LUMO GAP              11.450983276554 eV   |
           -------------------------------------------------

------------------------------------------------------------------------
 * finished run on 2025/04/11 at 12:29:38.282     
------------------------------------------------------------------------
 total:
 * wall-time:     0 d,  0 h,  0 min,  0.375 sec
 *  cpu-time:     0 d,  0 h,  0 min,  0.016 sec
 * ratio c/w:     0.043 speedup
 SCF:
 * wall-time:     0 d,  0 h,  0 min,  0.009 sec
 *  cpu-time:     0 d,  0 h,  0 min,  0.009 sec
 * ratio c/w:     0.988 speedup

