      -----------------------------------------------------------      
     |                   =====================                   |     
     |                           x T B                           |     
     |                   =====================                   |     
     |                         S. Grimme                         |     
     |          Mulliken Center for Theoretical Chemistry        |     
     |                    University of Bonn                     |     
      -----------------------------------------------------------      

   * xtb version 6.7.1 (edcfbbe) compiled by 'albert@albert-system' on 2024-07-22

   xtb is free software: you can redistribute it and/or modify it under
   the terms of the GNU Lesser General Public License as published by
   the Free Software Foundation, either version 3 of the License, or
   (at your option) any later version.
   
   xtb is distributed in the hope that it will be useful,
   but WITHOUT ANY WARRANTY; without even the implied warranty of
   MERCHANTABILITY or FITNESS FOR A PARTICULAR PURPOSE.  See the
   GNU Lesser General Public License for more details.
   
   Cite this work as:
   * C. Bannwarth, E. Caldeweyher, S. Ehlert, A. Hansen, P. Pracht,
     J. Seibert, S. Spicher, S. Grimme, WIREs Comput. Mol. Sci., 2020, 11,
     e01493. DOI: 10.1002/wcms.1493
   
   for GFN2-xTB:
   * C. Bannwarth, S. Ehlert and S. Grimme., J. Chem. Theory Comput., 2019,
     15, 1652-1671. DOI: 10.1021/acs.jctc.8b01176
   for GFN1-xTB:
   * S. Grimme, C. Bannwarth, P. Shushkov, J. Chem. Theory Comput., 2017,
     13, 1989-2009. DOI: 10.1021/acs.jctc.7b00118
   for GFN0-xTB:
   * P. Pracht, E. Caldeweyher, S. Ehlert, S. Grimme, ChemRxiv, 2019, preprint.
     DOI: 10.26434/chemrxiv.8326202.v1
   for GFN-FF:
   * S. Spicher and S. Grimme, Angew. Chem. Int. Ed., 2020, 59, 15665-15673.
     DOI: 10.1002/anie.202004239
   
   for ALPB and GBSA implicit solvation:
   * S. Ehlert, M. Stahn, S. Spicher, S. Grimme, J. Chem. Theory Comput.,
     2021, 17, 4250-4261. DOI: 10.1021/acs.jctc.1c00471
   
   for ddCOSMO and CPCM-X implicit solvation:
   * M. Stahn, S. Ehlert, S. Grimme, J. Phys. Chem. A,
     2023, XX, XXXX-XXXX. DOI: 10.1021/acs.jpca.3c04382
   
   for DFT-D4:
   * E. Caldeweyher, C. Bannwarth and S. Grimme, J. Chem. Phys., 2017,
     147, 034112. DOI: 10.1063/1.4993215
   * E. Caldeweyher, S. Ehlert, A. Hansen, H. Neugebauer, S. Spicher,
     C. Bannwarth and S. Grimme, J. Chem. Phys., 2019, 150, 154122.
     DOI: 10.1063/1.5090222
   * E. Caldeweyher, J.-M. Mewes, S. Ehlert and S. Grimme, Phys. Chem. Chem. Phys.
     2020, 22, 8499-8512. DOI: 10.1039/D0CP00502A
   
   for sTDA-xTB:
   * S. Grimme and C. Bannwarth, J. Chem. Phys., 2016, 145, 054103.
     DOI: 10.1063/1.4959605
   
   in the mass-spec context:
   * V. Asgeirsson, C. Bauer and S. Grimme, Chem. Sci., 2017, 8, 4879.
     DOI: 10.1039/c7sc00601b
   * J. Koopman and S. Grimme, ACS Omega 2019, 4, 12, 15120-15133.
     DOI: 10.1021/acsomega.9b02011
   
   for metadynamics refer to:
   * S. Grimme, J. Chem. Theory Comput., 2019, 155, 2847-2862
     DOI: 10.1021/acs.jctc.9b00143
   
   for SPH calculations refer to:
   * S. Spicher and S. Grimme, J. Chem. Theory Comput., 2021, 17, 1701-1714
     DOI: 10.1021/acs.jctc.0c01306
   
   for ONIOM refer to:
   * C. Plett, A. Katbashev, S. Ehlert, S. Grimme, M. Bursch,
     Phys. Chem. Chem. Phys., 2023, 25, 17860-17868. DOI: 10.1039/D3CP02178E
   
   for DIPRO refer to:
   * J. Kohn, N. Gildemeister, S. Grimme, D. Fazzi, A. Hansen,
     J. Chem. Phys., 2023, just accepted.
   
   for PTB refer to:
   * S. Grimme, M. Mueller, A. Hansen, J. Chem. Phys., 2023, 158, 124111.
     DOI: 10.1063/5.0137838
   
   with help from (in alphabetical order)
   P. Atkinson, C. Bannwarth, F. Bohle, G. Brandenburg, E. Caldeweyher
   M. Checinski, S. Dohm, S. Ehlert, S. Ehrlich, I. Gerasimov, C. Hölzer
   A. Katbashev, J. Kohn, J. Koopman, C. Lavigne, S. Lehtola, F. März, M. Müller,
   F. Musil, H. Neugebauer, J. Pisarek, C. Plett, P. Pracht, F. Pultar,
   J. Seibert, P. Shushkov, S. Spicher, M. Stahn, M. Steiner, T. Strunk,
   J. Stückrath, T. Rose, and J. Unsleber
   
 * started run on 2025/04/11 at 12:26:09.976     
   ID    Z sym.   atoms
    1    6 C      1-5
    2    1 H      6-13

           -------------------------------------------------
          |                Calculation Setup                |
           -------------------------------------------------

          program call               : /srv/scratch/z5358697/.xtb/bin/xtb gas.coord --gfn2 --sp --chrg 0 --norestart --parallel 1
          hostname                   : k075
          coordinate file            : gas.coord
          omp threads                :                     1


           -------------------------------------------------
          |                 G F N 2 - x T B                 |
           -------------------------------------------------

        Reference                      10.1021/acs.jctc.8b01176
      * Hamiltonian:
        H0-scaling (s, p, d)           1.850000    2.230000    2.230000
        zeta-weighting                 0.500000
      * Dispersion:
        s8                             2.700000
        a1                             0.520000
        a2                             5.000000
        s9                             5.000000
      * Repulsion:
        kExp                           1.500000    1.000000
        rExp                           1.000000
      * Coulomb:
        alpha                          2.000000
        third order                    shell-resolved
        anisotropic                    true
        a3                             3.000000
        a5                             4.000000
        cn-shift                       1.200000
        cn-exp                         4.000000
        max-rad                        5.000000


          ...................................................
          :                      SETUP                      :
          :.................................................:
          :  # basis functions                  28          :
          :  # atomic orbitals                  28          :
          :  # shells                           18          :
          :  # electrons                        28          :
          :  max. iterations                   250          :
          :  Hamiltonian                  GFN2-xTB          :
          :  restarted?                      false          :
          :  GBSA solvation                  false          :
          :  PC potential                    false          :
          :  electronic temp.          300.0000000     K    :
          :  accuracy                    1.0000000          :
          :  -> integral cutoff          0.2500000E+02      :
          :  -> integral neglect         0.1000000E-07      :
          :  -> SCF convergence          0.1000000E-05 Eh   :
          :  -> wf. convergence          0.1000000E-03 e    :
          :  Broyden damping             0.4000000          :
          :  net charge                          0          :
          :  unpaired electrons                  0          :
          ...................................................

 iter      E             dE          RMSdq      gap      omega  full diag
   1    -14.9638890 -0.149639E+02  0.373E+00    5.31       0.0  T
   2    -14.9885795 -0.246905E-01  0.220E+00    5.23       1.0  T
   3    -14.9802979  0.828168E-02  0.124E+00    5.22       1.0  T
   4    -14.9911930 -0.108951E-01  0.502E-01    5.18       1.0  T
   5    -14.9927260 -0.153307E-02  0.556E-02    5.19       1.0  T
   6    -14.9927248  0.119773E-05  0.139E-02    5.18       2.0  T
   7    -14.9927264 -0.153940E-05  0.316E-03    5.18       8.8  T
   8    -14.9927264 -0.339309E-07  0.114E-03    5.19      24.4  T
   9    -14.9927264 -0.896132E-08  0.199E-04    5.19     139.3  T
  10    -14.9927264  0.332268E-10  0.758E-05    5.19     366.1  T

   *** convergence criteria satisfied after 10 iterations ***

         #    Occupation            Energy/Eh            Energy/eV
      -------------------------------------------------------------
         1        2.0000           -0.6262570             -17.0413
       ...           ...                  ...                  ...
         8        2.0000           -0.4839836             -13.1699
         9        2.0000           -0.4605164             -12.5313
        10        2.0000           -0.4597191             -12.5096
        11        2.0000           -0.4329700             -11.7817
        12        2.0000           -0.4301797             -11.7058
        13        2.0000           -0.4000178             -10.8850
        14        2.0000           -0.3982007             -10.8356 (HOMO)
        15                         -0.2076551              -5.6506 (LUMO)
        16                         -0.1925961              -5.2408
        17                          0.1065157               2.8984
        18                          0.1181257               3.2144
        19                          0.1405052               3.8233
       ...                                ...                  ...
        28                          0.6448753              17.5480
      -------------------------------------------------------------
                  HL-Gap            0.1905455 Eh            5.1850 eV
             Fermi-level           -0.3029279 Eh           -8.2431 eV

 SCC (total)                   0 d,  0 h,  0 min,  0.019 sec
 SCC setup                      ...        0 min,  0.000 sec (  0.885%)
 Dispersion                     ...        0 min,  0.000 sec (  0.339%)
 classical contributions        ...        0 min,  0.000 sec (  0.085%)
 integral evaluation            ...        0 min,  0.001 sec (  3.825%)
 iterations                     ...        0 min,  0.016 sec ( 82.887%)
 molecular gradient             ...        0 min,  0.002 sec ( 11.115%)
 printout                       ...        0 min,  0.000 sec (  0.785%)

         :::::::::::::::::::::::::::::::::::::::::::::::::::::
         ::                     SUMMARY                     ::
         :::::::::::::::::::::::::::::::::::::::::::::::::::::
         :: total energy             -14.711649939684 Eh    ::
         :: gradient norm              0.001697065158 Eh/a0 ::
         :: HOMO-LUMO gap              5.185008276062 eV    ::
         ::.................................................::
         :: SCC energy               -14.992718330002 Eh    ::
         :: -> isotropic ES            0.002569694937 Eh    ::
         :: -> anisotropic ES          0.003717781408 Eh    ::
         :: -> anisotropic XC          0.013483832001 Eh    ::
         :: -> dispersion             -0.006639070096 Eh    ::
         :: repulsion energy           0.281068390318 Eh    ::
         :: add. restraining           0.000000000000 Eh    ::
         :: total charge               0.000000000000 e     ::
         :::::::::::::::::::::::::::::::::::::::::::::::::::::

           -------------------------------------------------
          |                Property Printout                |
           -------------------------------------------------

    * Orbital Energies and Occupations

         #    Occupation            Energy/Eh            Energy/eV
      -------------------------------------------------------------
         1        2.0000           -0.6262570             -17.0413
         2        2.0000           -0.6115115             -16.6401
         3        2.0000           -0.5887001             -16.0193
         4        2.0000           -0.5461743             -14.8622
         5        2.0000           -0.5443343             -14.8121
         6        2.0000           -0.5077513             -13.8166
         7        2.0000           -0.5065836             -13.7848
         8        2.0000           -0.4839836             -13.1699
         9        2.0000           -0.4605164             -12.5313
        10        2.0000           -0.4597191             -12.5096
        11        2.0000           -0.4329700             -11.7817
        12        2.0000           -0.4301797             -11.7058
        13        2.0000           -0.4000178             -10.8850
        14        2.0000           -0.3982007             -10.8356 (HOMO)
        15                         -0.2076551              -5.6506 (LUMO)
        16                         -0.1925961              -5.2408
        17                          0.1065157               2.8984
        18                          0.1181257               3.2144
        19                          0.1405052               3.8233
        20                          0.1626161               4.4250
        21                          0.1965187               5.3475
        22                          0.1971879               5.3658
        23                          0.2065802               5.6213
        24                          0.2427001               6.6042
        25                          0.4165352              11.3345
       ...                                ...                  ...
        28                          0.6448753              17.5480
      -------------------------------------------------------------
                  HL-Gap            0.1905455 Eh            5.1850 eV
             Fermi-level           -0.3029279 Eh           -8.2431 eV

     #   Z          covCN         q      C6AA      α(0)
     1   6 C        2.837    -0.095    30.382     9.033
     2   6 C        2.890    -0.024    28.599     8.768
     3   6 C        3.811    -0.059    21.622     6.619
     4   6 C        2.890    -0.024    28.599     8.768
     5   6 C        2.837    -0.095    30.382     9.033
     6   1 H        0.926     0.034     2.525     2.485
     7   1 H        0.926     0.036     2.500     2.473
     8   1 H        0.925     0.032     2.563     2.503
     9   1 H        0.924     0.048     2.344     2.394
    10   1 H        0.924     0.044     2.392     2.419
    11   1 H        0.925     0.032     2.563     2.503
    12   1 H        0.926     0.034     2.525     2.485
    13   1 H        0.926     0.036     2.500     2.473

 Mol. C6AA /au·bohr⁶  :       1517.614568
 Mol. C8AA /au·bohr⁸  :      34421.818932
 Mol. α(0) /au        :         61.954882


Wiberg/Mayer (AO) data.
largest (>0.10) Wiberg bond orders for each atom

 ---------------------------------------------------------------------------
     #   Z sym  total        # sym  WBO       # sym  WBO       # sym  WBO
 ---------------------------------------------------------------------------
     1   6 C    3.992 --     2 C    1.978     6 H    0.976     7 H    0.975
     2   6 C    3.991 --     1 C    1.978     3 C    1.011     8 H    0.967
     3   6 C    3.998 --     2 C    1.011     4 C    1.011    10 H    0.973
                             9 H    0.945
     4   6 C    3.991 --     5 C    1.978     3 C    1.011    11 H    0.967
     5   6 C    3.992 --     4 C    1.978    12 H    0.976    13 H    0.975
     6   1 H    0.999 --     1 C    0.976
     7   1 H    0.999 --     1 C    0.975
     8   1 H    0.999 --     2 C    0.967
     9   1 H    0.998 --     3 C    0.945
    10   1 H    0.998 --     3 C    0.973
    11   1 H    0.999 --     4 C    0.967
    12   1 H    0.999 --     5 C    0.976
    13   1 H    0.999 --     5 C    0.975
 ---------------------------------------------------------------------------

Topologies differ in total number of bonds
Writing topology from bond orders to xtbtopo.mol

molecular dipole:
                 x           y           z       tot (Debye)
 q only:       -0.000      -0.100      -0.073
   full:       -0.000      -0.123      -0.061       0.350
molecular quadrupole (traceless):
                xx          xy          yy          xz          yz          zz
 q only:       -0.551      -0.000       0.231       0.000      -0.378       0.320
  q+dip:       -0.860      -0.001       0.635       0.001      -2.443       0.225
   full:       -0.900      -0.000       0.475       0.001      -1.256       0.426


           -------------------------------------------------
          | TOTAL ENERGY              -14.711649939684 Eh   |
          | GRADIENT NORM               0.001697065158 Eh/α |
          | HOMO-LUMO GAP               5.185008276062 eV   |
           -------------------------------------------------

------------------------------------------------------------------------
 * finished run on 2025/04/11 at 12:26:10.022     
------------------------------------------------------------------------
 total:
 * wall-time:     0 d,  0 h,  0 min,  0.046 sec
 *  cpu-time:     0 d,  0 h,  0 min,  0.014 sec
 * ratio c/w:     0.300 speedup
 SCF:
 * wall-time:     0 d,  0 h,  0 min,  0.019 sec
 *  cpu-time:     0 d,  0 h,  0 min,  0.007 sec
 * ratio c/w:     0.383 speedup

