      -----------------------------------------------------------      
     |                   =====================                   |     
     |                           x T B                           |     
     |                   =====================                   |     
     |                         S. Grimme                         |     
     |          Mulliken Center for Theoretical Chemistry        |     
     |                    University of Bonn                     |     
      -----------------------------------------------------------      

   * xtb version 6.7.1 (edcfbbe) compiled by 'albert@albert-system' on 2024-07-22

   xtb is free software: you can redistribute it and/or modify it under
   the terms of the GNU Lesser General Public License as published by
   the Free Software Foundation, either version 3 of the License, or
   (at your option) any later version.
   
   xtb is distributed in the hope that it will be useful,
   but WITHOUT ANY WARRANTY; without even the implied warranty of
   MERCHANTABILITY or FITNESS FOR A PARTICULAR PURPOSE.  See the
   GNU Lesser General Public License for more details.
   
   Cite this work as:
   * C. Bannwarth, E. Caldeweyher, S. Ehlert, A. Hansen, P. Pracht,
     J. Seibert, S. Spicher, S. Grimme, WIREs Comput. Mol. Sci., 2020, 11,
     e01493. DOI: 10.1002/wcms.1493
   
   for GFN2-xTB:
   * C. Bannwarth, S. Ehlert and S. Grimme., J. Chem. Theory Comput., 2019,
     15, 1652-1671. DOI: 10.1021/acs.jctc.8b01176
   for GFN1-xTB:
   * S. Grimme, C. Bannwarth, P. Shushkov, J. Chem. Theory Comput., 2017,
     13, 1989-2009. DOI: 10.1021/acs.jctc.7b00118
   for GFN0-xTB:
   * P. Pracht, E. Caldeweyher, S. Ehlert, S. Grimme, ChemRxiv, 2019, preprint.
     DOI: 10.26434/chemrxiv.8326202.v1
   for GFN-FF:
   * S. Spicher and S. Grimme, Angew. Chem. Int. Ed., 2020, 59, 15665-15673.
     DOI: 10.1002/anie.202004239
   
   for ALPB and GBSA implicit solvation:
   * S. Ehlert, M. Stahn, S. Spicher, S. Grimme, J. Chem. Theory Comput.,
     2021, 17, 4250-4261. DOI: 10.1021/acs.jctc.1c00471
   
   for ddCOSMO and CPCM-X implicit solvation:
   * M. Stahn, S. Ehlert, S. Grimme, J. Phys. Chem. A,
     2023, XX, XXXX-XXXX. DOI: 10.1021/acs.jpca.3c04382
   
   for DFT-D4:
   * E. Caldeweyher, C. Bannwarth and S. Grimme, J. Chem. Phys., 2017,
     147, 034112. DOI: 10.1063/1.4993215
   * E. Caldeweyher, S. Ehlert, A. Hansen, H. Neugebauer, S. Spicher,
     C. Bannwarth and S. Grimme, J. Chem. Phys., 2019, 150, 154122.
     DOI: 10.1063/1.5090222
   * E. Caldeweyher, J.-M. Mewes, S. Ehlert and S. Grimme, Phys. Chem. Chem. Phys.
     2020, 22, 8499-8512. DOI: 10.1039/D0CP00502A
   
   for sTDA-xTB:
   * S. Grimme and C. Bannwarth, J. Chem. Phys., 2016, 145, 054103.
     DOI: 10.1063/1.4959605
   
   in the mass-spec context:
   * V. Asgeirsson, C. Bauer and S. Grimme, Chem. Sci., 2017, 8, 4879.
     DOI: 10.1039/c7sc00601b
   * J. Koopman and S. Grimme, ACS Omega 2019, 4, 12, 15120-15133.
     DOI: 10.1021/acsomega.9b02011
   
   for metadynamics refer to:
   * S. Grimme, J. Chem. Theory Comput., 2019, 155, 2847-2862
     DOI: 10.1021/acs.jctc.9b00143
   
   for SPH calculations refer to:
   * S. Spicher and S. Grimme, J. Chem. Theory Comput., 2021, 17, 1701-1714
     DOI: 10.1021/acs.jctc.0c01306
   
   for ONIOM refer to:
   * C. Plett, A. Katbashev, S. Ehlert, S. Grimme, M. Bursch,
     Phys. Chem. Chem. Phys., 2023, 25, 17860-17868. DOI: 10.1039/D3CP02178E
   
   for DIPRO refer to:
   * J. Kohn, N. Gildemeister, S. Grimme, D. Fazzi, A. Hansen,
     J. Chem. Phys., 2023, just accepted.
   
   for PTB refer to:
   * S. Grimme, M. Mueller, A. Hansen, J. Chem. Phys., 2023, 158, 124111.
     DOI: 10.1063/5.0137838
   
   with help from (in alphabetical order)
   P. Atkinson, C. Bannwarth, F. Bohle, G. Brandenburg, E. Caldeweyher
   M. Checinski, S. Dohm, S. Ehlert, S. Ehrlich, I. Gerasimov, C. Hölzer
   A. Katbashev, J. Kohn, J. Koopman, C. Lavigne, S. Lehtola, F. März, M. Müller,
   F. Musil, H. Neugebauer, J. Pisarek, C. Plett, P. Pracht, F. Pultar,
   J. Seibert, P. Shushkov, S. Spicher, M. Stahn, M. Steiner, T. Strunk,
   J. Stückrath, T. Rose, and J. Unsleber
   
 * started run on 2025/04/11 at 18:21:53.827     
   ID    Z sym.   atoms
    1    6 C      1-7, 9-15, 18, 19
    2    8 O      8, 16, 20
    3    7 N      17
    4    1 H      21-33

           -------------------------------------------------
          |                Calculation Setup                |
           -------------------------------------------------

          program call               : /srv/scratch/z5358697/.xtb/bin/xtb xtb_rrho.coord --gfn2 --ohess vtight --chrg 0 --enso --norestart -I rrho-xcontrol-inp --parallel 1 --alpb water
          hostname                   : k030
          coordinate file            : xtb_rrho.coord
          omp threads                :                     1


           -------------------------------------------------
          |                 G F N 2 - x T B                 |
           -------------------------------------------------

        Reference                      10.1021/acs.jctc.8b01176
      * Hamiltonian:
        H0-scaling (s, p, d)           1.850000    2.230000    2.230000
        zeta-weighting                 0.500000
      * Dispersion:
        s8                             2.700000
        a1                             0.520000
        a2                             5.000000
        s9                             5.000000
      * Repulsion:
        kExp                           1.500000    1.000000
        rExp                           1.000000
      * Coulomb:
        alpha                          2.000000
        third order                    shell-resolved
        anisotropic                    true
        a3                             3.000000
        a5                             4.000000
        cn-shift                       1.200000
        cn-exp                         4.000000
        max-rad                        5.000000

      * Solvation model:               ALPB
        Solvent                        water
        Parameter file                 internal GFN2-xTB/ALPB
        Dielectric constant                8.0200E+01
        Reference state                gsolv [1 M gas/solution]
        Free energy shift                  1.0808E-03 Eh       6.7819E-01 kcal/mol
        Temperature                        2.9815E+02 K
        Density                            1.0000E+00 kg/L
        Solvent mass                       1.8000E+01 g/mol
        Interaction kernel             P16
        Born radius scaling (c1)           1.4744E+00
        Born radii integrator          GBOBC
        Born offset                        0.0000E+00 a0       0.0000E+00 AA
        H-bond correction              true
        Ion screening                  false
        Surface tension                    1.0000E-05 Eh       1.5569E+01 dyn/cm
        Grid points                               974 per atom

          ...................................................
          :                      SETUP                      :
          :.................................................:
          :  # basis functions                  93          :
          :  # atomic orbitals                  93          :
          :  # shells                           53          :
          :  # electrons                       100          :
          :  max. iterations                   250          :
          :  Hamiltonian                  GFN2-xTB          :
          :  restarted?                      false          :
          :  GBSA solvation                   true          :
          :  PC potential                    false          :
          :  electronic temp.          300.0000000     K    :
          :  accuracy                    1.0000000          :
          :  -> integral cutoff          0.2500000E+02      :
          :  -> integral neglect         0.1000000E-07      :
          :  -> SCF convergence          0.1000000E-05 Eh   :
          :  -> wf. convergence          0.1000000E-03 e    :
          :  Broyden damping             0.4000000          :
          :  net charge                          0          :
          :  unpaired electrons                  0          :
          ...................................................

 iter      E             dE          RMSdq      gap      omega  full diag
   1    -56.6926589 -0.566927E+02  0.531E+00    1.00       0.0  T
   2    -56.7813353 -0.886764E-01  0.306E+00    1.55       1.0  T
   3    -56.7724728  0.886247E-02  0.162E+00    1.27       1.0  T
   4    -56.7974105 -0.249377E-01  0.515E-01    1.38       1.0  T
   5    -56.8043970 -0.698650E-02  0.126E-01    1.31       1.0  T
   6    -56.8045924 -0.195385E-03  0.590E-02    1.33       1.0  T
   7    -56.8046127 -0.203589E-04  0.250E-02    1.32       1.0  T
   8    -56.8046150 -0.231728E-05  0.919E-03    1.32       1.9  T
   9    -56.8046159 -0.844162E-06  0.406E-03    1.33       4.3  T
  10    -56.8046160 -0.130707E-06  0.154E-03    1.32      11.3  T
  11    -56.8046160 -0.754282E-08  0.803E-04    1.32      21.7  T
  12    -56.8046160 -0.322557E-08  0.318E-04    1.32      54.7  T

   *** convergence criteria satisfied after 12 iterations ***

         #    Occupation            Energy/Eh            Energy/eV
      -------------------------------------------------------------
         1        2.0000           -0.7110736             -19.3493
       ...           ...                  ...                  ...
        44        2.0000           -0.4262251             -11.5982
        45        2.0000           -0.4233675             -11.5204
        46        2.0000           -0.4215723             -11.4716
        47        2.0000           -0.4180450             -11.3756
        48        2.0000           -0.4069839             -11.0746
        49        2.0000           -0.3878410             -10.5537
        50        2.0000           -0.3714407             -10.1074 (HOMO)
        51                         -0.3227595              -8.7827 (LUMO)
        52                         -0.2718526              -7.3975
        53                         -0.2426820              -6.6037
        54                         -0.2312083              -6.2915
        55                         -0.1861934              -5.0666
       ...                                ...                  ...
        93                          0.6914231              18.8146
      -------------------------------------------------------------
                  HL-Gap            0.0486812 Eh            1.3247 eV
             Fermi-level           -0.3471001 Eh           -9.4451 eV

 SCC (total)                   0 d,  0 h,  0 min,  0.076 sec
 SCC setup                      ...        0 min,  0.003 sec (  3.445%)
 Dispersion                     ...        0 min,  0.000 sec (  0.527%)
 classical contributions        ...        0 min,  0.000 sec (  0.081%)
 integral evaluation            ...        0 min,  0.006 sec (  7.468%)
 iterations                     ...        0 min,  0.047 sec ( 62.526%)
 molecular gradient             ...        0 min,  0.019 sec ( 25.585%)
 printout                       ...        0 min,  0.000 sec (  0.343%)

         :::::::::::::::::::::::::::::::::::::::::::::::::::::
         ::                     SUMMARY                     ::
         :::::::::::::::::::::::::::::::::::::::::::::::::::::
         :: total energy             -56.016650478677 Eh    ::
         :: total w/o Gsasa/hb       -56.011929015341 Eh    ::
         :: gradient norm              0.034895153044 Eh/a0 ::
         :: HOMO-LUMO gap              1.324682243502 eV    ::
         ::.................................................::
         :: SCC energy               -56.804609728456 Eh    ::
         :: -> isotropic ES            0.114848057467 Eh    ::
         :: -> anisotropic ES         -0.002575639454 Eh    ::
         :: -> anisotropic XC          0.020157808082 Eh    ::
         :: -> dispersion             -0.036649491725 Eh    ::
         :: -> Gsolv                  -0.025483366291 Eh    ::
         ::    -> Gelec               -0.020761902955 Eh    ::
         ::    -> Gsasa                0.001255684858 Eh    ::
         ::    -> Ghb                 -0.007057907892 Eh    ::
         ::    -> Gshift               0.001080759698 Eh    ::
         :: repulsion energy           0.787959249779 Eh    ::
         :: add. restraining           0.000000000000 Eh    ::
         :: total charge              -0.000000000000 e     ::
         :::::::::::::::::::::::::::::::::::::::::::::::::::::

      ----------------------------------------------------------- 
     |                   =====================                   |
     |                        A N C O P T                        |
     |                   =====================                   |
     |               Approximate Normal Coordinate               |
     |                Rational Function Optimizer                |
      ----------------------------------------------------------- 
      ----------------------------------------------------------- 
     |                   =====================                   |
     |                        A N C O P T                        |
     |                   =====================                   |
     |               Approximate Normal Coordinate               |
     |                Rational Function Optimizer                |
      ----------------------------------------------------------- 

          ...................................................
          :                      SETUP                      :
          :.................................................:
          :   optimization level         verytight          :
          :   max. optcycles                   660          :
          :   ANC micro-cycles                  20          :
          :   degrees of freedom                93          :
          :.................................................:
          :   RF solver                   davidson          :
          :   write xtbopt.log                true          :
          :   linear?                        false          :
          :   energy convergence         0.1000000E-06 Eh   :
          :   grad. convergence          0.2000000E-03 Eh/α :
          :   maxmium RF displ.          1.0000000          :
          :   Hlow (freq-cutoff)         0.1000000E-01      :
          :   Hmax (freq-cutoff)         5.0000000          :
          :   S6 in model hess.         20.0000000          :
          ...................................................

generating ANC from exact Hessian ...
Using Lindh-Hessian (1995)
 Shifting diagonal of input Hessian by   9.367385242704942E-003
 Lowest  eigenvalues of input Hessian
    0.000000    0.000000    0.000000    0.000000    0.000000    0.000000
    0.010000    0.010577    0.011513    0.012004    0.012656    0.015732
    0.017237    0.019154    0.021287    0.023858    0.025539    0.028540
 Highest eigenvalues
    1.922765    1.941768    2.019306    2.058832    2.085597    2.193291
 

........................................................................
.............................. CYCLE    1 ..............................
........................................................................

 iter      E             dE          RMSdq      gap      omega  full diag
   1    -56.8046160 -0.568046E+02  0.115E-04    1.32       0.0  T
   2    -56.8046160 -0.468177E-10  0.769E-05    1.32     226.3  T
   3    -56.8046160 -0.113616E-10  0.549E-05    1.32     317.0  T
     SCC iter.                  ...        0 min,  0.006 sec
     gradient                   ...        0 min,  0.019 sec
 * total energy  :   -56.0166505 Eh     change       -0.1220911E-08 Eh
   gradient norm :     0.0348974 Eh/α   predicted     0.0000000E+00 (-100.00%)
   displ. norm   :     0.1752148 α      lambda       -0.2676408E-02
   maximum displ.:     0.0830385 α      in ANC's #18, #17, #12, ...

........................................................................
.............................. CYCLE    2 ..............................
........................................................................

 iter      E             dE          RMSdq      gap      omega  full diag
   1    -56.8283452 -0.568283E+02  0.102E-01    1.32       0.0  T
   2    -56.8283638 -0.185829E-04  0.600E-02    1.33       1.0  T
   3    -56.8283594  0.442904E-05  0.224E-02    1.33       1.0  T
   4    -56.8283668 -0.740894E-05  0.486E-03    1.33       3.6  T
   5    -56.8283672 -0.393592E-06  0.230E-03    1.33       7.6  T
   6    -56.8283673 -0.652011E-07  0.111E-03    1.33      15.6  T
   7    -56.8283673 -0.115635E-07  0.491E-04    1.33      35.5  T
   8    -56.8283673 -0.123630E-08  0.220E-04    1.33      79.1  T
     SCC iter.                  ...        0 min,  0.013 sec
     gradient                   ...        0 min,  0.019 sec
 * total energy  :   -56.0184398 Eh     change       -0.1789344E-02 Eh
   gradient norm :     0.0150784 Eh/α   predicted    -0.1379367E-02 ( -22.91%)
   displ. norm   :     0.1441109 α      lambda       -0.6997236E-03
   maximum displ.:     0.0735334 α      in ANC's #5, #12, #18, ...

........................................................................
.............................. CYCLE    3 ..............................
........................................................................

 iter      E             dE          RMSdq      gap      omega  full diag
   1    -56.8383167 -0.568383E+02  0.636E-02    1.31       0.0  T
   2    -56.8383245 -0.778777E-05  0.369E-02    1.32       1.0  T
   3    -56.8383232  0.128900E-05  0.139E-02    1.32       1.3  T
   4    -56.8383255 -0.227483E-05  0.349E-03    1.32       5.0  T
   5    -56.8383257 -0.265386E-06  0.146E-03    1.32      11.9  T
   6    -56.8383258 -0.226865E-07  0.838E-04    1.32      20.8  T
   7    -56.8383258 -0.622388E-08  0.381E-04    1.32      45.7  T
     SCC iter.                  ...        0 min,  0.012 sec
     gradient                   ...        0 min,  0.019 sec
 * total energy  :   -56.0188557 Eh     change       -0.4159220E-03 Eh
   gradient norm :     0.0049232 Eh/α   predicted    -0.3571794E-03 ( -14.12%)
   displ. norm   :     0.0866006 α      lambda       -0.1228530E-03
   maximum displ.:     0.0611600 α      in ANC's #5, #12, #1, ...

........................................................................
.............................. CYCLE    4 ..............................
........................................................................

 iter      E             dE          RMSdq      gap      omega  full diag
   1    -56.8382299 -0.568382E+02  0.297E-02    1.31       0.0  T
   2    -56.8382305 -0.625469E-06  0.175E-02    1.31       1.0  T
   3    -56.8382292  0.128105E-05  0.815E-03    1.31       2.1  T
   4    -56.8382308 -0.157918E-05  0.149E-03    1.31      11.7  T
   5    -56.8382308 -0.421712E-07  0.665E-04    1.31      26.2  T
   6    -56.8382308 -0.137095E-08  0.348E-04    1.31      50.0  T
     SCC iter.                  ...        0 min,  0.010 sec
     gradient                   ...        0 min,  0.019 sec
 * total energy  :   -56.0189466 Eh     change       -0.9080840E-04 Eh
   gradient norm :     0.0037742 Eh/α   predicted    -0.6188763E-04 ( -31.85%)
   displ. norm   :     0.1310717 α      lambda       -0.1121635E-03
   maximum displ.:     0.0966443 α      in ANC's #5, #1, #4, ...

........................................................................
.............................. CYCLE    5 ..............................
........................................................................

 iter      E             dE          RMSdq      gap      omega  full diag
   1    -56.8362298 -0.568362E+02  0.398E-02    1.30       0.0  T
   2    -56.8362303 -0.543809E-06  0.237E-02    1.30       1.0  T
   3    -56.8362279  0.244927E-05  0.102E-02    1.30       1.7  T
   4    -56.8362308 -0.290641E-05  0.142E-03    1.30      12.3  T
   5    -56.8362308 -0.163390E-07  0.851E-04    1.30      20.5  T
   6    -56.8362308 -0.218614E-08  0.318E-04    1.30      54.8  T
     SCC iter.                  ...        0 min,  0.010 sec
     gradient                   ...        0 min,  0.019 sec
 * total energy  :   -56.0190225 Eh     change       -0.7590962E-04 Eh
   gradient norm :     0.0047076 Eh/α   predicted    -0.5704579E-04 ( -24.85%)
   displ. norm   :     0.1028961 α      lambda       -0.6148535E-04
   maximum displ.:     0.0718274 α      in ANC's #5, #1, #4, ...

........................................................................
.............................. CYCLE    6 ..............................
........................................................................

 iter      E             dE          RMSdq      gap      omega  full diag
   1    -56.8350043 -0.568350E+02  0.280E-02    1.30       0.0  T
   2    -56.8350046 -0.347036E-06  0.167E-02    1.30       1.0  T
   3    -56.8350042  0.459122E-06  0.482E-03    1.30       3.6  T
   4    -56.8350047 -0.556961E-06  0.114E-03    1.30      15.3  T
   5    -56.8350048 -0.221982E-07  0.567E-04    1.30      30.7  T
   6    -56.8350048 -0.958302E-09  0.238E-04    1.30      73.0  T
     SCC iter.                  ...        0 min,  0.010 sec
     gradient                   ...        0 min,  0.019 sec
 * total energy  :   -56.0190715 Eh     change       -0.4901796E-04 Eh
   gradient norm :     0.0042945 Eh/α   predicted    -0.3107949E-04 ( -36.60%)
   displ. norm   :     0.1689743 α      lambda       -0.8895899E-04
   maximum displ.:     0.1124292 α      in ANC's #5, #1, #4, ...

........................................................................
.............................. CYCLE    7 ..............................
........................................................................

 iter      E             dE          RMSdq      gap      omega  full diag
   1    -56.8342844 -0.568343E+02  0.435E-02    1.30       0.0  T
   2    -56.8342856 -0.115956E-05  0.261E-02    1.30       1.0  T
   3    -56.8342854  0.152448E-06  0.499E-03    1.30       3.5  T
   4    -56.8342857 -0.336678E-06  0.155E-03    1.30      11.2  T
   5    -56.8342858 -0.272849E-07  0.861E-04    1.30      20.2  T
   6    -56.8342858 -0.103766E-08  0.345E-04    1.30      50.4  T
     SCC iter.                  ...        0 min,  0.010 sec
     gradient                   ...        0 min,  0.019 sec
 * total energy  :   -56.0191367 Eh     change       -0.6522478E-04 Eh
   gradient norm :     0.0034417 Eh/α   predicted    -0.4575780E-04 ( -29.85%)
   displ. norm   :     0.1660682 α      lambda       -0.6480327E-04
   maximum displ.:     0.1062386 α      in ANC's #5, #1, #4, ...

........................................................................
.............................. CYCLE    8 ..............................
........................................................................

 iter      E             dE          RMSdq      gap      omega  full diag
   1    -56.8347892 -0.568348E+02  0.408E-02    1.30       0.0  T
   2    -56.8347904 -0.124918E-05  0.244E-02    1.30       1.0  T
   3    -56.8347900  0.433606E-06  0.591E-03    1.30       2.9  T
   4    -56.8347906 -0.590576E-06  0.191E-03    1.30       9.1  T
   5    -56.8347907 -0.887822E-07  0.858E-04    1.30      20.3  T
   6    -56.8347907 -0.261218E-08  0.480E-04    1.30      36.2  T
     SCC iter.                  ...        0 min,  0.010 sec
     gradient                   ...        0 min,  0.019 sec
 * total energy  :   -56.0191817 Eh     change       -0.4501613E-04 Eh
   gradient norm :     0.0023456 Eh/α   predicted    -0.3330804E-04 ( -26.01%)
   displ. norm   :     0.1123031 α      lambda       -0.3302140E-04
   maximum displ.:     0.0664238 α      in ANC's #1, #5, #4, ...

........................................................................
.............................. CYCLE    9 ..............................
........................................................................

 iter      E             dE          RMSdq      gap      omega  full diag
   1    -56.8359570 -0.568360E+02  0.266E-02    1.31       0.0  T
   2    -56.8359576 -0.545572E-06  0.159E-02    1.30       1.1  T
   3    -56.8359571  0.483033E-06  0.504E-03    1.30       3.5  T
   4    -56.8359577 -0.568130E-06  0.153E-03    1.30      11.4  T
   5    -56.8359577 -0.641453E-07  0.533E-04    1.30      32.6  T
   6    -56.8359577 -0.110963E-08  0.296E-04    1.30      58.7  T
     SCC iter.                  ...        0 min,  0.010 sec
     gradient                   ...        0 min,  0.019 sec
 * total energy  :   -56.0192047 Eh     change       -0.2300626E-04 Eh
   gradient norm :     0.0013467 Eh/α   predicted    -0.1671927E-04 ( -27.33%)
   displ. norm   :     0.1769993 α      lambda       -0.2001277E-04
   maximum displ.:     0.1077331 α      in ANC's #1, #5, #7, ...

........................................................................
.............................. CYCLE   10 ..............................
........................................................................

 iter      E             dE          RMSdq      gap      omega  full diag
   1    -56.8364863 -0.568365E+02  0.418E-02    1.31       0.0  T
   2    -56.8364871 -0.851317E-06  0.251E-02    1.30       1.0  T
   3    -56.8364867  0.477402E-06  0.553E-03    1.31       3.1  T
   4    -56.8364874 -0.713132E-06  0.189E-03    1.30       9.2  T
   5    -56.8364874 -0.634175E-07  0.103E-03    1.30      16.9  T
   6    -56.8364874 -0.451366E-08  0.544E-04    1.30      32.0  T
   7    -56.8364874 -0.351673E-08  0.155E-04    1.30     112.3  T
     SCC iter.                  ...        0 min,  0.012 sec
     gradient                   ...        0 min,  0.019 sec
 * total energy  :   -56.0192143 Eh     change       -0.9540557E-05 Eh
   gradient norm :     0.0031527 Eh/α   predicted    -0.1014599E-04 (   6.35%)
   displ. norm   :     0.0472697 α      lambda       -0.2678564E-04
   maximum displ.:     0.0340454 α      in ANC's #1, #8, #3, ...

........................................................................
.............................. CYCLE   11 ..............................
........................................................................

 iter      E             dE          RMSdq      gap      omega  full diag
   1    -56.8375725 -0.568376E+02  0.169E-02    1.31       0.0  T
   2    -56.8375726 -0.884448E-07  0.997E-03    1.30       1.7  T
   3    -56.8375725  0.117558E-06  0.229E-03    1.31       7.6  T
   4    -56.8375726 -0.157830E-06  0.598E-04    1.30      29.1  T
   5    -56.8375726 -0.370447E-08  0.349E-04    1.30      49.9  T
     SCC iter.                  ...        0 min,  0.008 sec
     gradient                   ...        0 min,  0.019 sec
 * total energy  :   -56.0192254 Eh     change       -0.1117166E-04 Eh
   gradient norm :     0.0022491 Eh/α   predicted    -0.1342309E-04 (  20.15%)
   displ. norm   :     0.0153318 α      lambda       -0.8059349E-05
   maximum displ.:     0.0109170 α      in ANC's #1, #3, #8, ...

........................................................................
.............................. CYCLE   12 ..............................
........................................................................

 iter      E             dE          RMSdq      gap      omega  full diag
   1    -56.8368761 -0.568369E+02  0.681E-03    1.30       0.0  T
   2    -56.8368761 -0.173477E-07  0.397E-03    1.30       4.4  T
   3    -56.8368760  0.388676E-07  0.125E-03    1.30      14.0  T
   4    -56.8368761 -0.450360E-07  0.228E-04    1.30      76.5  T
   5    -56.8368761 -0.118119E-08  0.908E-05    1.30     191.8  T
     SCC iter.                  ...        0 min,  0.008 sec
     gradient                   ...        0 min,  0.019 sec
 * total energy  :   -56.0192317 Eh     change       -0.6261018E-05 Eh
   gradient norm :     0.0013314 Eh/α   predicted    -0.4032154E-05 ( -35.60%)
   displ. norm   :     0.0543086 α      lambda       -0.9882629E-05
   maximum displ.:     0.0344609 α      in ANC's #3, #1, #8, ...

........................................................................
.............................. CYCLE   13 ..............................
........................................................................

 iter      E             dE          RMSdq      gap      omega  full diag
   1    -56.8355831 -0.568356E+02  0.219E-02    1.30       0.0  T
   2    -56.8355833 -0.195611E-06  0.127E-02    1.30       1.4  T
   3    -56.8355829  0.372792E-06  0.387E-03    1.30       4.5  T
   4    -56.8355833 -0.434884E-06  0.831E-04    1.30      21.0  T
   5    -56.8355833 -0.171208E-07  0.304E-04    1.30      57.3  T
     SCC iter.                  ...        0 min,  0.008 sec
     gradient                   ...        0 min,  0.019 sec
 * total energy  :   -56.0192388 Eh     change       -0.7099482E-05 Eh
   gradient norm :     0.0010918 Eh/α   predicted    -0.4949774E-05 ( -30.28%)
   displ. norm   :     0.0285967 α      lambda       -0.3180026E-05
   maximum displ.:     0.0209030 α      in ANC's #1, #3, #11, ...

........................................................................
.............................. CYCLE   14 ..............................
........................................................................

 iter      E             dE          RMSdq      gap      omega  full diag
   1    -56.8359634 -0.568360E+02  0.945E-03    1.30       0.0  T
   2    -56.8359634 -0.795399E-08  0.555E-03    1.30       3.1  T
   3    -56.8359634  0.647745E-09  0.422E-04    1.30      41.2  T
   4    -56.8359634 -0.482974E-08  0.167E-04    1.30     104.2  T
     SCC iter.                  ...        0 min,  0.007 sec
     gradient                   ...        0 min,  0.019 sec
 * total energy  :   -56.0192429 Eh     change       -0.4125820E-05 Eh
   gradient norm :     0.0007801 Eh/α   predicted    -0.1591048E-05 ( -61.44%)
   displ. norm   :     0.0619845 α      lambda       -0.6381505E-05
   maximum displ.:     0.0437660 α      in ANC's #1, #3, #11, ...

........................................................................
.............................. CYCLE   15 ..............................
........................................................................

 iter      E             dE          RMSdq      gap      omega  full diag
   1    -56.8366120 -0.568366E+02  0.210E-02    1.30       0.0  T
   2    -56.8366120 -0.431236E-07  0.123E-02    1.30       1.4  T
   3    -56.8366120  0.299028E-07  0.126E-03    1.30      13.9  T
   4    -56.8366120 -0.504157E-07  0.389E-04    1.30      44.7  T
   5    -56.8366120 -0.191603E-08  0.221E-04    1.30      78.6  T
     SCC iter.                  ...        0 min,  0.008 sec
     gradient                   ...        0 min,  0.019 sec
 * total energy  :   -56.0192501 Eh     change       -0.7128958E-05 Eh
   gradient norm :     0.0003106 Eh/α   predicted    -0.3200406E-05 ( -55.11%)
   displ. norm   :     0.0747819 α      lambda       -0.4969796E-05
   maximum displ.:     0.0534745 α      in ANC's #1, #3, #11, ...

........................................................................
.............................. CYCLE   16 ..............................
........................................................................

 iter      E             dE          RMSdq      gap      omega  full diag
   1    -56.8366783 -0.568367E+02  0.249E-02    1.31       0.0  T
   2    -56.8366783 -0.479488E-07  0.146E-02    1.31       1.2  T
   3    -56.8366783 -0.115522E-07  0.743E-04    1.31      23.4  T
   4    -56.8366783 -0.117483E-07  0.374E-04    1.31      46.6  T
     SCC iter.                  ...        0 min,  0.007 sec
     gradient                   ...        0 min,  0.019 sec
 * total energy  :   -56.0192560 Eh     change       -0.5920198E-05 Eh
   gradient norm :     0.0005792 Eh/α   predicted    -0.2493790E-05 ( -57.88%)
   displ. norm   :     0.0739194 α      lambda       -0.4369000E-05
   maximum displ.:     0.0532551 α      in ANC's #1, #3, #11, ...

........................................................................
.............................. CYCLE   17 ..............................
........................................................................

 iter      E             dE          RMSdq      gap      omega  full diag
   1    -56.8365954 -0.568366E+02  0.249E-02    1.31       0.0  T
   2    -56.8365954 -0.499899E-07  0.146E-02    1.31       1.2  T
   3    -56.8365954  0.428807E-08  0.980E-04    1.31      17.8  T
   4    -56.8365954 -0.258497E-07  0.408E-04    1.31      42.6  T
     SCC iter.                  ...        0 min,  0.007 sec
     gradient                   ...        0 min,  0.019 sec
 * total energy  :   -56.0192614 Eh     change       -0.5393674E-05 Eh
   gradient norm :     0.0005078 Eh/α   predicted    -0.2190269E-05 ( -59.39%)
   displ. norm   :     0.0744238 α      lambda       -0.4444888E-05
   maximum displ.:     0.0550767 α      in ANC's #1, #3, #8, ...

........................................................................
.............................. CYCLE   18 ..............................
........................................................................

 iter      E             dE          RMSdq      gap      omega  full diag
   1    -56.8364170 -0.568364E+02  0.251E-02    1.31       0.0  T
   2    -56.8364171 -0.938657E-07  0.147E-02    1.31       1.2  T
   3    -56.8364170  0.630278E-07  0.172E-03    1.31      10.1  T
   4    -56.8364171 -0.882615E-07  0.571E-04    1.31      30.5  T
   5    -56.8364171 -0.762775E-08  0.259E-04    1.31      67.1  T
     SCC iter.                  ...        0 min,  0.008 sec
     gradient                   ...        0 min,  0.019 sec
 * total energy  :   -56.0192667 Eh     change       -0.5311402E-05 Eh
   gradient norm :     0.0004115 Eh/α   predicted    -0.2230804E-05 ( -58.00%)
   displ. norm   :     0.0628609 α      lambda       -0.3394154E-05
   maximum displ.:     0.0489259 α      in ANC's #1, #3, #8, ...

........................................................................
.............................. CYCLE   19 ..............................
........................................................................

 iter      E             dE          RMSdq      gap      omega  full diag
   1    -56.8362623 -0.568363E+02  0.201E-02    1.31       0.0  T
   2    -56.8362624 -0.811833E-07  0.118E-02    1.31       1.5  T
   3    -56.8362623  0.459516E-07  0.154E-03    1.31      11.3  T
   4    -56.8362624 -0.638683E-07  0.463E-04    1.31      37.6  T
   5    -56.8362624 -0.498432E-08  0.216E-04    1.31      80.6  T
     SCC iter.                  ...        0 min,  0.008 sec
     gradient                   ...        0 min,  0.019 sec
 * total energy  :   -56.0192708 Eh     change       -0.4084190E-05 Eh
   gradient norm :     0.0003214 Eh/α   predicted    -0.1702236E-05 ( -58.32%)
   displ. norm   :     0.0496115 α      lambda       -0.2210467E-05
   maximum displ.:     0.0400568 α      in ANC's #1, #3, #2, ...

........................................................................
.............................. CYCLE   20 ..............................
........................................................................

 iter      E             dE          RMSdq      gap      omega  full diag
   1    -56.8362591 -0.568363E+02  0.147E-02    1.31       0.0  T
   2    -56.8362591 -0.314835E-07  0.866E-03    1.30       2.0  T
   3    -56.8362591  0.119805E-07  0.921E-04    1.31      18.9  T
   4    -56.8362592 -0.218290E-07  0.295E-04    1.30      59.0  T
     SCC iter.                  ...        0 min,  0.007 sec
     gradient                   ...        0 min,  0.019 sec
 * total energy  :   -56.0192735 Eh     change       -0.2733644E-05 Eh
   gradient norm :     0.0004066 Eh/α   predicted    -0.1111184E-05 ( -59.35%)
   displ. norm   :     0.0359671 α      lambda       -0.1661998E-05
   maximum displ.:     0.0298006 α      in ANC's #1, #2, #5, ...
 * RMSD in coord.:     0.2351508 α      energy gain  -0.2623021E-02 Eh

generating ANC from exact Hessian ...
Using Lindh-Hessian (1995)
 Shifting diagonal of input Hessian by   9.358816386017189E-003
 Lowest  eigenvalues of input Hessian
    0.000000    0.000000    0.000000    0.000000    0.000000    0.000000
    0.010000    0.010594    0.011557    0.012062    0.012803    0.016081
    0.017833    0.019605    0.021965    0.024671    0.026621    0.028468
 Highest eigenvalues
    1.966717    1.986094    2.064008    2.107298    2.135628    2.246748
 

........................................................................
.............................. CYCLE   21 ..............................
........................................................................

 iter      E             dE          RMSdq      gap      omega  full diag
   1    -56.8362629 -0.568363E+02  0.937E-03    1.31       0.0  T
   2    -56.8362629 -0.258222E-07  0.553E-03    1.31       3.1  T
   3    -56.8362628  0.352104E-07  0.118E-03    1.31      14.7  T
   4    -56.8362629 -0.418461E-07  0.335E-04    1.31      52.0  T
   5    -56.8362629 -0.266479E-08  0.137E-04    1.31     127.3  T
     SCC iter.                  ...        0 min,  0.008 sec
     gradient                   ...        0 min,  0.019 sec
 * total energy  :   -56.0192757 Eh     change       -0.2157300E-05 Eh
   gradient norm :     0.0002774 Eh/α   predicted     0.0000000E+00 (-100.00%)
   displ. norm   :     0.0130116 α      lambda       -0.8530736E-07
   maximum displ.:     0.0109916 α      in ANC's #1, #3, #8, ...

........................................................................
.............................. CYCLE   22 ..............................
........................................................................

 iter      E             dE          RMSdq      gap      omega  full diag
   1    -56.8363690 -0.568364E+02  0.369E-03    1.31       0.0  T
   2    -56.8363691 -0.240628E-08  0.221E-03    1.31       7.9  T
   3    -56.8363691 -0.181963E-09  0.206E-04    1.31      84.7  T
   4    -56.8363691 -0.884960E-09  0.971E-05    1.31     179.3  T
     SCC iter.                  ...        0 min,  0.007 sec
     gradient                   ...        0 min,  0.019 sec
 * total energy  :   -56.0192770 Eh     change       -0.1373713E-05 Eh
   gradient norm :     0.0001492 Eh/α   predicted    -0.5191804E-06 ( -62.21%)
   displ. norm   :     0.0300199 α      lambda       -0.1997557E-05
   maximum displ.:     0.0223942 α      in ANC's #1, #3, #8, ...

........................................................................
.............................. CYCLE   23 ..............................
........................................................................

 iter      E             dE          RMSdq      gap      omega  full diag
   1    -56.8364656 -0.568365E+02  0.922E-03    1.31       0.0  T
   2    -56.8364656 -0.113979E-07  0.550E-03    1.31       3.2  T
   3    -56.8364656 -0.322977E-09  0.518E-04    1.31      33.6  T
   4    -56.8364656 -0.571985E-08  0.253E-04    1.31      68.8  T
     SCC iter.                  ...        0 min,  0.007 sec
     gradient                   ...        0 min,  0.019 sec
 * total energy  :   -56.0192795 Eh     change       -0.2484161E-05 Eh
   gradient norm :     0.0003207 Eh/α   predicted    -0.9994396E-06 ( -59.77%)
   displ. norm   :     0.0421745 α      lambda       -0.2162524E-05
   maximum displ.:     0.0310287 α      in ANC's #1, #3, #2, ...

........................................................................
.............................. CYCLE   24 ..............................
........................................................................

 iter      E             dE          RMSdq      gap      omega  full diag
   1    -56.8363692 -0.568364E+02  0.127E-02    1.31       0.0  T
   2    -56.8363693 -0.170295E-07  0.757E-03    1.31       2.3  T
   3    -56.8363692  0.125623E-07  0.930E-04    1.31      18.7  T
   4    -56.8363693 -0.236791E-07  0.326E-04    1.31      53.5  T
     SCC iter.                  ...        0 min,  0.007 sec
     gradient                   ...        0 min,  0.019 sec
 * total energy  :   -56.0192821 Eh     change       -0.2573045E-05 Eh
   gradient norm :     0.0002738 Eh/α   predicted    -0.1083892E-05 ( -57.88%)
   displ. norm   :     0.0371640 α      lambda       -0.1433908E-05
   maximum displ.:     0.0276547 α      in ANC's #1, #3, #2, ...

........................................................................
.............................. CYCLE   25 ..............................
........................................................................

 iter      E             dE          RMSdq      gap      omega  full diag
   1    -56.8363655 -0.568364E+02  0.103E-02    1.31       0.0  T
   2    -56.8363655 -0.126397E-07  0.616E-03    1.31       2.8  T
   3    -56.8363655  0.310213E-07  0.118E-03    1.31      14.7  T
   4    -56.8363655 -0.415806E-07  0.277E-04    1.31      62.9  T
   5    -56.8363655 -0.350930E-09  0.161E-04    1.31     108.0  T
     SCC iter.                  ...        0 min,  0.008 sec
     gradient                   ...        0 min,  0.019 sec
 * total energy  :   -56.0192840 Eh     change       -0.1864573E-05 Eh
   gradient norm :     0.0002038 Eh/α   predicted    -0.7244894E-06 ( -61.14%)
   displ. norm   :     0.0330421 α      lambda       -0.1307977E-05
   maximum displ.:     0.0246373 α      in ANC's #1, #3, #2, ...

........................................................................
.............................. CYCLE   26 ..............................
........................................................................

 iter      E             dE          RMSdq      gap      omega  full diag
   1    -56.8363701 -0.568364E+02  0.871E-03    1.31       0.0  T
   2    -56.8363701 -0.110856E-07  0.521E-03    1.31       3.3  T
   3    -56.8363701  0.446617E-07  0.134E-03    1.31      13.0  T
   4    -56.8363701 -0.541359E-07  0.239E-04    1.31      72.7  T
   5    -56.8363701 -0.432102E-09  0.151E-04    1.31     115.4  T
     SCC iter.                  ...        0 min,  0.008 sec
     gradient                   ...        0 min,  0.019 sec
 * total energy  :   -56.0192858 Eh     change       -0.1800326E-05 Eh
   gradient norm :     0.0001622 Eh/α   predicted    -0.6578861E-06 ( -63.46%)
   displ. norm   :     0.0412552 α      lambda       -0.1771644E-05
   maximum displ.:     0.0299590 α      in ANC's #1, #3, #2, ...

........................................................................
.............................. CYCLE   27 ..............................
........................................................................

 iter      E             dE          RMSdq      gap      omega  full diag
   1    -56.8363389 -0.568363E+02  0.107E-02    1.31       0.0  T
   2    -56.8363389 -0.200254E-07  0.637E-03    1.30       2.7  T
   3    -56.8363389  0.986855E-07  0.199E-03    1.31       8.8  T
   4    -56.8363390 -0.116866E-06  0.305E-04    1.30      57.2  T
   5    -56.8363390 -0.793662E-09  0.190E-04    1.30      91.5  T
     SCC iter.                  ...        0 min,  0.008 sec
     gradient                   ...        0 min,  0.019 sec
 * total energy  :   -56.0192882 Eh     change       -0.2402238E-05 Eh
   gradient norm :     0.0001797 Eh/α   predicted    -0.8884796E-06 ( -63.01%)
   displ. norm   :     0.0567907 α      lambda       -0.2281149E-05
   maximum displ.:     0.0414308 α      in ANC's #1, #3, #2, ...

........................................................................
.............................. CYCLE   28 ..............................
........................................................................

 iter      E             dE          RMSdq      gap      omega  full diag
   1    -56.8363110 -0.568363E+02  0.145E-02    1.31       0.0  T
   2    -56.8363111 -0.421783E-07  0.867E-03    1.30       2.0  T
   3    -56.8363109  0.213815E-06  0.293E-03    1.31       5.9  T
   4    -56.8363111 -0.252473E-06  0.433E-04    1.30      40.2  T
   5    -56.8363111 -0.173307E-08  0.269E-04    1.30      64.6  T
     SCC iter.                  ...        0 min,  0.008 sec
     gradient                   ...        0 min,  0.019 sec
 * total energy  :   -56.0192910 Eh     change       -0.2869029E-05 Eh
   gradient norm :     0.0001969 Eh/α   predicted    -0.1144654E-05 ( -60.10%)
   displ. norm   :     0.0511731 α      lambda       -0.1574310E-05
   maximum displ.:     0.0385140 α      in ANC's #1, #3, #2, ...

........................................................................
.............................. CYCLE   29 ..............................
........................................................................

 iter      E             dE          RMSdq      gap      omega  full diag
   1    -56.8363188 -0.568363E+02  0.132E-02    1.31       0.0  T
   2    -56.8363188 -0.418268E-07  0.792E-03    1.30       2.2  T
   3    -56.8363186  0.209579E-06  0.290E-03    1.31       6.0  T
   4    -56.8363189 -0.246808E-06  0.422E-04    1.30      41.3  T
   5    -56.8363189 -0.203102E-08  0.252E-04    1.30      69.1  T
     SCC iter.                  ...        0 min,  0.008 sec
     gradient                   ...        0 min,  0.019 sec
 * total energy  :   -56.0192930 Eh     change       -0.1926583E-05 Eh
   gradient norm :     0.0001568 Eh/α   predicted    -0.7889166E-06 ( -59.05%)
   displ. norm   :     0.0302084 α      lambda       -0.7280228E-06
   maximum displ.:     0.0244418 α      in ANC's #1, #3, #2, ...

........................................................................
.............................. CYCLE   30 ..............................
........................................................................

 iter      E             dE          RMSdq      gap      omega  full diag
   1    -56.8363140 -0.568363E+02  0.721E-03    1.31       0.0  T
   2    -56.8363140 -0.131837E-07  0.432E-03    1.30       4.0  T
   3    -56.8363140  0.619884E-07  0.158E-03    1.31      11.0  T
   4    -56.8363140 -0.734775E-07  0.238E-04    1.30      73.2  T
   5    -56.8363140 -0.608637E-09  0.145E-04    1.30     119.8  T
     SCC iter.                  ...        0 min,  0.008 sec
     gradient                   ...        0 min,  0.019 sec
 * total energy  :   -56.0192939 Eh     change       -0.9736900E-06 Eh
   gradient norm :     0.0000880 Eh/α   predicted    -0.3690707E-06 ( -62.10%)
   displ. norm   :     0.0130614 α      lambda       -0.3708420E-06
   maximum displ.:     0.0120166 α      in ANC's #1, #2, #4, ...

........................................................................
.............................. CYCLE   31 ..............................
........................................................................

 iter      E             dE          RMSdq      gap      omega  full diag
   1    -56.8363431 -0.568363E+02  0.306E-03    1.31       0.0  T
   2    -56.8363431 -0.229674E-08  0.183E-03    1.30       9.5  T
   3    -56.8363430  0.913910E-08  0.595E-04    1.31      29.3  T
   4    -56.8363431 -0.108380E-07  0.991E-05    1.30     175.6  T
     SCC iter.                  ...        0 min,  0.007 sec
     gradient                   ...        0 min,  0.019 sec
 * total energy  :   -56.0192945 Eh     change       -0.5547880E-06 Eh
   gradient norm :     0.0000741 Eh/α   predicted    -0.1894702E-06 ( -65.85%)
   displ. norm   :     0.0098310 α      lambda       -0.3835594E-06
   maximum displ.:     0.0089467 α      in ANC's #1, #3, #2, ...

........................................................................
.............................. CYCLE   32 ..............................
........................................................................

 iter      E             dE          RMSdq      gap      omega  full diag
   1    -56.8363585 -0.568364E+02  0.274E-03    1.31       0.0  T
   2    -56.8363585 -0.796312E-09  0.161E-03    1.30      10.8  T
   3    -56.8363585  0.951403E-09  0.207E-04    1.31      84.2  T
   4    -56.8363585 -0.139099E-08  0.571E-05    1.31     304.7  T
     SCC iter.                  ...        0 min,  0.007 sec
     gradient                   ...        0 min,  0.019 sec
 * total energy  :   -56.0192950 Eh     change       -0.5620535E-06 Eh
   gradient norm :     0.0000854 Eh/α   predicted    -0.1931689E-06 ( -65.63%)
   displ. norm   :     0.0145280 α      lambda       -0.5602165E-06
   maximum displ.:     0.0116403 α      in ANC's #1, #3, #11, ...

........................................................................
.............................. CYCLE   33 ..............................
........................................................................

 iter      E             dE          RMSdq      gap      omega  full diag
   1    -56.8363627 -0.568364E+02  0.447E-03    1.31       0.0  T
   2    -56.8363627 -0.161889E-08  0.262E-03    1.31       6.6  T
   3    -56.8363627 -0.584777E-09  0.122E-04    1.31     142.6  T
   4    -56.8363627 -0.233108E-09  0.658E-05    1.31     264.4  T
     SCC iter.                  ...        0 min,  0.007 sec
     gradient                   ...        0 min,  0.019 sec
 * total energy  :   -56.0192958 Eh     change       -0.7998667E-06 Eh
   gradient norm :     0.0000862 Eh/α   predicted    -0.2810088E-06 ( -64.87%)
   displ. norm   :     0.0223360 α      lambda       -0.7726250E-06
   maximum displ.:     0.0168379 α      in ANC's #1, #3, #11, ...

........................................................................
.............................. CYCLE   34 ..............................
........................................................................

 iter      E             dE          RMSdq      gap      omega  full diag
   1    -56.8363573 -0.568364E+02  0.704E-03    1.31       0.0  T
   2    -56.8363573 -0.414051E-08  0.413E-03    1.31       4.2  T
   3    -56.8363573 -0.984741E-09  0.233E-04    1.31      74.6  T
   4    -56.8363573 -0.102040E-08  0.104E-04    1.31     167.7  T
     SCC iter.                  ...        0 min,  0.007 sec
     gradient                   ...        0 min,  0.019 sec
 * total energy  :   -56.0192969 Eh     change       -0.1073589E-05 Eh
   gradient norm :     0.0000805 Eh/α   predicted    -0.3873009E-06 ( -63.92%)
   displ. norm   :     0.0287806 α      lambda       -0.8668150E-06
   maximum displ.:     0.0212465 α      in ANC's #1, #3, #11, ...

........................................................................
.............................. CYCLE   35 ..............................
........................................................................

 iter      E             dE          RMSdq      gap      omega  full diag
   1    -56.8363469 -0.568363E+02  0.912E-03    1.31       0.0  T
   2    -56.8363469 -0.748291E-08  0.535E-03    1.31       3.3  T
   3    -56.8363469 -0.795758E-09  0.355E-04    1.31      49.0  T
   4    -56.8363469 -0.257921E-08  0.140E-04    1.31     124.5  T
     SCC iter.                  ...        0 min,  0.007 sec
     gradient                   ...        0 min,  0.019 sec
 * total energy  :   -56.0192981 Eh     change       -0.1181697E-05 Eh
   gradient norm :     0.0000794 Eh/α   predicted    -0.4343075E-06 ( -63.25%)
   displ. norm   :     0.0308245 α      lambda       -0.8192337E-06
   maximum displ.:     0.0227171 α      in ANC's #1, #3, #5, ...

........................................................................
.............................. CYCLE   36 ..............................
........................................................................

 iter      E             dE          RMSdq      gap      omega  full diag
   1    -56.8363420 -0.568363E+02  0.984E-03    1.31       0.0  T
   2    -56.8363420 -0.102700E-07  0.578E-03    1.31       3.0  T
   3    -56.8363420  0.202238E-08  0.473E-04    1.31      36.8  T
   4    -56.8363420 -0.585229E-08  0.164E-04    1.31     106.2  T
     SCC iter.                  ...        0 min,  0.007 sec
     gradient                   ...        0 min,  0.019 sec
 * total energy  :   -56.0192992 Eh     change       -0.1096398E-05 Eh
   gradient norm :     0.0000755 Eh/α   predicted    -0.4130610E-06 ( -62.33%)
   displ. norm   :     0.0293773 α      lambda       -0.6895493E-06
   maximum displ.:     0.0220291 α      in ANC's #1, #3, #5, ...

........................................................................
.............................. CYCLE   37 ..............................
........................................................................

 iter      E             dE          RMSdq      gap      omega  full diag
   1    -56.8363330 -0.568363E+02  0.933E-03    1.31       0.0  T
   2    -56.8363331 -0.105154E-07  0.548E-03    1.31       3.2  T
   3    -56.8363331  0.461573E-08  0.527E-04    1.31      33.0  T
   4    -56.8363331 -0.806577E-08  0.182E-04    1.31      95.7  T
     SCC iter.                  ...        0 min,  0.007 sec
     gradient                   ...        0 min,  0.019 sec
 * total energy  :   -56.0193001 Eh     change       -0.9383742E-06 Eh
   gradient norm :     0.0000695 Eh/α   predicted    -0.3475168E-06 ( -62.97%)
   displ. norm   :     0.0242789 α      lambda       -0.5190660E-06
   maximum displ.:     0.0190062 α      in ANC's #1, #3, #5, ...

........................................................................
.............................. CYCLE   38 ..............................
........................................................................

 iter      E             dE          RMSdq      gap      omega  full diag
   1    -56.8363324 -0.568363E+02  0.757E-03    1.31       0.0  T
   2    -56.8363324 -0.887349E-08  0.445E-03    1.31       3.9  T
   3    -56.8363324  0.823577E-08  0.586E-04    1.31      29.7  T
   4    -56.8363324 -0.107171E-07  0.181E-04    1.31      96.0  T
     SCC iter.                  ...        0 min,  0.007 sec
     gradient                   ...        0 min,  0.019 sec
 * total energy  :   -56.0193009 Eh     change       -0.7320669E-06 Eh
   gradient norm :     0.0000573 Eh/α   predicted    -0.2643108E-06 ( -63.90%)
   displ. norm   :     0.0175104 α      lambda       -0.3767173E-06
   maximum displ.:     0.0144664 α      in ANC's #1, #3, #8, ...

........................................................................
.............................. CYCLE   39 ..............................
........................................................................

 iter      E             dE          RMSdq      gap      omega  full diag
   1    -56.8363323 -0.568363E+02  0.525E-03    1.31       0.0  T
   2    -56.8363323 -0.577968E-08  0.308E-03    1.31       5.7  T
   3    -56.8363323  0.756459E-08  0.540E-04    1.31      32.3  T
   4    -56.8363323 -0.904195E-08  0.153E-04    1.31     113.5  T
     SCC iter.                  ...        0 min,  0.007 sec
     gradient                   ...        0 min,  0.019 sec
 * total energy  :   -56.0193014 Eh     change       -0.5321292E-06 Eh
   gradient norm :     0.0000498 Eh/α   predicted    -0.1894884E-06 ( -64.39%)
   displ. norm   :     0.0143990 α      lambda       -0.3086008E-06
   maximum displ.:     0.0125504 α      in ANC's #1, #3, #4, ...

........................................................................
.............................. CYCLE   40 ..............................
........................................................................

 iter      E             dE          RMSdq      gap      omega  full diag
   1    -56.8363294 -0.568363E+02  0.394E-03    1.31       0.0  T
   2    -56.8363295 -0.430300E-08  0.232E-03    1.31       7.5  T
   3    -56.8363294  0.756282E-08  0.538E-04    1.31      32.4  T
   4    -56.8363295 -0.877762E-08  0.136E-04    1.31     127.7  T
     SCC iter.                  ...        0 min,  0.007 sec
     gradient                   ...        0 min,  0.019 sec
 * total energy  :   -56.0193019 Eh     change       -0.4553321E-06 Eh
   gradient norm :     0.0000489 Eh/α   predicted    -0.1585851E-06 ( -65.17%)
   displ. norm   :     0.0118636 α      lambda       -0.2686625E-06
   maximum displ.:     0.0102547 α      in ANC's #1, #4, #2, ...

........................................................................
.............................. CYCLE   41 ..............................
........................................................................

 iter      E             dE          RMSdq      gap      omega  full diag
   1    -56.8363280 -0.568363E+02  0.300E-03    1.31       0.0  T
   2    -56.8363280 -0.318119E-08  0.178E-03    1.31       9.8  T
   3    -56.8363280  0.699779E-08  0.528E-04    1.31      33.0  T
   4    -56.8363280 -0.816968E-08  0.120E-04    1.31     145.2  T
     SCC iter.                  ...        0 min,  0.007 sec
     gradient                   ...        0 min,  0.019 sec
 * total energy  :   -56.0193022 Eh     change       -0.3892860E-06 Eh
   gradient norm :     0.0000533 Eh/α   predicted    -0.1359472E-06 ( -65.08%)
   displ. norm   :     0.0130475 α      lambda       -0.2905749E-06
   maximum displ.:     0.0106435 α      in ANC's #1, #4, #2, ...

........................................................................
.............................. CYCLE   42 ..............................
........................................................................

 iter      E             dE          RMSdq      gap      omega  full diag
   1    -56.8363245 -0.568363E+02  0.316E-03    1.31       0.0  T
   2    -56.8363245 -0.324214E-08  0.188E-03    1.31       9.3  T
   3    -56.8363245  0.910965E-08  0.604E-04    1.31      28.8  T
   4    -56.8363245 -0.107104E-07  0.123E-04    1.31     141.9  T
     SCC iter.                  ...        0 min,  0.007 sec
     gradient                   ...        0 min,  0.019 sec
 * total energy  :   -56.0193027 Eh     change       -0.4219989E-06 Eh
   gradient norm :     0.0000553 Eh/α   predicted    -0.1460693E-06 ( -65.39%)
   displ. norm   :     0.0146009 α      lambda       -0.3145195E-06
   maximum displ.:     0.0112790 α      in ANC's #1, #4, #2, ...
 * RMSD in coord.:     0.0818842 α      energy gain  -0.2916224E-04 Eh

generating ANC from exact Hessian ...
Using Lindh-Hessian (1995)
 Shifting diagonal of input Hessian by   9.360526240047448E-003
 Lowest  eigenvalues of input Hessian
    0.000000    0.000000    0.000000    0.000000    0.000000    0.000000
    0.010000    0.010584    0.011556    0.012068    0.012765    0.016118
    0.017900    0.019593    0.021969    0.024561    0.026668    0.028573
 Highest eigenvalues
    1.966680    1.985827    2.063905    2.106767    2.134834    2.246714
 

........................................................................
.............................. CYCLE   43 ..............................
........................................................................

 iter      E             dE          RMSdq      gap      omega  full diag
   1    -56.8363227 -0.568363E+02  0.358E-03    1.31       0.0  T
   2    -56.8363227 -0.337685E-08  0.214E-03    1.31       8.1  T
   3    -56.8363227  0.116699E-07  0.679E-04    1.31      25.6  T
   4    -56.8363227 -0.138311E-07  0.126E-04    1.31     138.4  T
     SCC iter.                  ...        0 min,  0.007 sec
     gradient                   ...        0 min,  0.019 sec
 * total energy  :   -56.0193031 Eh     change       -0.4509492E-06 Eh
   gradient norm :     0.0000558 Eh/α   predicted     0.0000000E+00 (-100.00%)
   displ. norm   :     0.0000837 α      lambda        0.0000000E+00
   maximum displ.:     0.0000545 α      in ANC's #1, #76, #8, ...

........................................................................
.............................. CYCLE   44 ..............................
........................................................................

 iter      E             dE          RMSdq      gap      omega  full diag
   1    -56.8363276 -0.568363E+02  0.113E-04    1.31       0.0  T
   2    -56.8363276 -0.863807E-10  0.656E-05    1.31     265.2  T
   3    -56.8363276 -0.147367E-10  0.422E-05    1.31     412.2  T
     SCC iter.                  ...        0 min,  0.005 sec
     gradient                   ...        0 min,  0.019 sec
 * total energy  :   -56.0193031 Eh     change       -0.4258801E-08 Eh
   gradient norm :     0.0000471 Eh/α   predicted    -0.2541396E-08 ( -40.33%)
   displ. norm   :     0.0000837 α      lambda        0.0000000E+00
   maximum displ.:     0.0000545 α      in ANC's #1, #76, #8, ...

   *** GEOMETRY OPTIMIZATION CONVERGED AFTER 44 ITERATIONS ***

------------------------------------------------------------------------
 total energy gain   :        -0.0026526 Eh       -1.6646 kcal/mol
 total RMSD          :         0.2881638 a0        0.1525 Å
 total power (kW/mol):        -0.1582841 (step)   -4.2557 (real)
------------------------------------------------------------------------

 ANCopt (total)                0 d,  0 h,  0 min,  1.637 sec
 optimizer setup                ...        0 min,  0.000 sec (  0.023%)
 model hessian                  ...        0 min,  0.027 sec (  1.626%)
 ANC generation                 ...        0 min,  0.003 sec (  0.177%)
 coordinate transformation      ...        0 min,  0.001 sec (  0.039%)
 single point calculation       ...        0 min,  1.585 sec ( 96.866%)
 optimization log               ...        0 min,  0.015 sec (  0.896%)
 hessian update                 ...        0 min,  0.001 sec (  0.044%)
 rational function              ...        0 min,  0.003 sec (  0.186%)

================
 final structure:
================
$coord
       -8.62955581074152       -1.79747776969062        0.75414491641700      C
       -7.35772862808301       -4.07219984903927        0.45556621060102      C
       -4.78010837220350       -4.08430694573746        0.03110379739686      C
       -3.42525500232952       -1.82980312581290       -0.09491388158015      C
       -4.71031506489813        0.46064360193307        0.21035212983206      C
       -7.31078083590104        0.45288274391074        0.62966825804388      C
       -3.34886976903434        2.87433518880738        0.09262960176504      C
       -4.45735176915768        4.90498392961685        0.31692162321972      O
       -0.59483229492865        2.74624731151719       -0.28934055704501      C
        0.70247625131557        5.01666670605470       -0.26866883765238      C
        3.31185019948819        5.05979812335785       -0.60195685557884      C
        4.61148368672005        2.85351332271477       -0.95753220977309      C
        3.37331174492146        0.48260864032634       -0.99860286918080      C
        0.69352679381271        0.42887368702371       -0.64669023874520      C
       -0.67927987299406       -1.93392250899299       -0.58043980029750      C
        0.33030370143451       -4.03491100532977       -0.89636630659801      O
        4.64462194880570       -1.66109806822326       -1.45914957920149      N
        7.33475284709957       -2.04492855378899       -1.30971380619512      C
        8.18524975133080       -2.60731083679947        1.41929891199304      C
        7.90059016123539       -0.52783271052581        3.05750144566674      O
      -10.64117444425232       -1.78261182815024        1.08227098270515      H
       -8.37813708910329       -5.83431949110616        0.55141148349795      H
       -3.75831911176568       -5.83400164318647       -0.21300931763246      H
       -8.24980167063318        2.25109241556502        0.85367105054350      H
       -0.35830448583991        6.73553511707547        0.01267949064123      H
        4.30242117981016        6.84114574152146       -0.58330666871984      H
        6.62518248306311        2.92619006797132       -1.23109797098579      H
        3.56648056268435       -3.25330340752913       -1.33909175175164      H
        8.34436726223051       -0.40572667178589       -2.04402291258639      H
        7.79667235707651       -3.67821587150123       -2.47947163009270      H
       10.14747465889103       -3.26829643444002        1.39745662025665      H
        6.99256769883675       -4.09789884010298        2.20722742375360      H
        9.17186835322774        0.72727447514117        2.67288049319436      H
$end
 
 Bond Distances (Angstroems)
 ---------------------------
C1-C2=1.3881         C1-C6=1.3818         C1-H21=1.0786        C2-C1=1.3881         C2-C3=1.3824         C2-H22=1.0787        
C3-C2=1.3824         C3-C4=1.3935         C3-H23=1.0800        C4-C3=1.3935         C4-C5=1.3991         C4-C15=1.4767        
C5-C4=1.3991         C5-C6=1.3939         C5-C7=1.4678         C6-C1=1.3818         C6-C5=1.3939         C6-H24=1.0800        
C7-C5=1.4678         C7-O8=1.2300         C7-C9=1.4729         O8-C7=1.2300         C9-C7=1.4729         C9-C10=1.3838        
C9-C14=1.4158        C10-C9=1.3838        C10-C11=1.3922       C10-H25=1.0792       C11-C10=1.3922       C11-C12=1.3680       
C11-H26=1.0786       C12-C11=1.3680       C12-C13=1.4156       C12-H27=1.0761       C13-C12=1.4156       C13-C14=1.4305       
C13-N17=1.3412       C14-C9=1.4158        C14-C13=1.4305       C14-C15=1.4465       C15-C4=1.4767        C15-C14=1.4465       
C15-O16=1.2448       O16-C15=1.2448       N17-C13=1.3412       N17-C18=1.4401       N17-H28=1.0195       C18-N17=1.4401       
C18-C19=1.5416       C18-H29=1.0904       C18-H30=1.0908       C19-C18=1.5416       C19-O20=1.4089       C19-H31=1.0958       
C19-H32=1.0929       O20-C19=1.4089       O20-H33=0.9670       H21-C1=1.0786        H22-C2=1.0787        H23-C3=1.0800        
H24-C6=1.0800        H25-C10=1.0792       H26-C11=1.0786       H27-C12=1.0761       H28-N17=1.0195       H29-C18=1.0904       
H30-C18=1.0908       H31-C19=1.0958       H32-C19=1.0929       H33-O20=0.9670       
 C  H  Rav=1.0837 sigma=0.0068  Rmin=1.0761  Rmax=1.0958    11
 C  C  Rav=1.4206 sigma=0.0450  Rmin=1.3680  Rmax=1.5416    17
 N  H  Rav=1.0195 sigma=0.0000  Rmin=1.0195  Rmax=1.0195     1
 N  C  Rav=1.3907 sigma=0.0495  Rmin=1.3412  Rmax=1.4401     2
 O  H  Rav=0.9670 sigma=0.0000  Rmin=0.9670  Rmax=0.9670     1
 O  C  Rav=1.2946 sigma=0.0811  Rmin=1.2300  Rmax=1.4089     3
 
 selected bond angles (degree)
 --------------------
C6-C1-C2=119.80                H21-C1-C2=120.21               H21-C1-C6=119.99               C3-C2-C1=120.06                
H22-C2-C1=120.10               H22-C2-C3=119.84               C4-C3-C2=120.76                H23-C3-C2=121.16               
H23-C3-C4=118.08               C5-C4-C3=119.08                C15-C4-C3=118.86               C15-C4-C5=122.05               
C6-C5-C4=119.71                C7-C5-C4=120.69                C7-C5-C6=119.60                C5-C6-C1=120.58                
H24-C6-C1=121.45               H24-C6-C5=117.98               O8-C7-C5=121.47                C9-C7-C5=116.84                
C9-C7-O8=121.69                C10-C9-C7=116.73               C14-C9-C7=122.32               C14-C9-C10=120.94              
C11-C10-C9=120.35              H25-C10-C9=118.35              H25-C10-C11=121.30             
 
 selected dihedral angles (degree)
 ---------------------------------
C3-C2-C1-C6=359.90            C3-C2-C1-H21=179.89           H22-C2-C1-C6=179.99           H22-C2-C1-H21=  0.00          
C4-C3-C2-C1=  0.21            C4-C3-C2-H22=180.12           H23-C3-C2-C1=180.24           H23-C3-C2-H22=  0.15          
C5-C4-C3-C2=359.89            C5-C4-C3-H23=179.86           C15-C4-C3-C2=180.68           C15-C4-C3-H23=  0.65          
C6-C5-C4-C3=359.91            C6-C5-C4-C15=179.09           C7-C5-C4-C3=179.94            C7-C5-C4-C15=359.12           
C5-C6-C1-C2=359.90            C5-C6-C1-H21=179.91           H24-C6-C1-C2=179.96           H24-C6-C1-H21=359.97          
C1-C6-C5-C4=  0.20            C1-C6-C5-C7=180.17            H24-C6-C5-C4=180.14           H24-C6-C5-C7=  0.11           
O8-C7-C5-C4=178.82            O8-C7-C5-C6=358.85            C9-C7-C5-C4=358.43            C9-C7-C5-C6=178.46            
C10-C9-C7-C5=183.25           C10-C9-C7-O8=  2.86           C14-C9-C7-C5=  2.86           C14-C9-C7-O8=182.46           
C11-C10-C9-C7=179.64          C11-C10-C9-C14=  0.03         H25-C10-C9-C7=359.70          H25-C10-C9-C14=180.09         
           -------------------------------------------------
          |                Final Singlepoint                |
           -------------------------------------------------

          ...................................................
          :                      SETUP                      :
          :.................................................:
          :  # basis functions                  93          :
          :  # atomic orbitals                  93          :
          :  # shells                           53          :
          :  # electrons                       100          :
          :  max. iterations                   250          :
          :  Hamiltonian                  GFN2-xTB          :
          :  restarted?                      false          :
          :  GBSA solvation                   true          :
          :  PC potential                    false          :
          :  electronic temp.          300.0000000     K    :
          :  accuracy                    1.0000000          :
          :  -> integral cutoff          0.2500000E+02      :
          :  -> integral neglect         0.1000000E-07      :
          :  -> SCF convergence          0.1000000E-05 Eh   :
          :  -> wf. convergence          0.1000000E-03 e    :
          :  Broyden damping             0.4000000          :
          :  net charge                          0          :
          :  unpaired electrons                  0          :
          ...................................................

 iter      E             dE          RMSdq      gap      omega  full diag
   1    -56.8363276 -0.568363E+02  0.140E-05    1.31       0.0  T
   2    -56.8363276 -0.163425E-11  0.100E-05    1.31    1738.8  T
   3    -56.8363276 -0.203926E-11  0.610E-06    1.31    2854.0  T

   *** convergence criteria satisfied after 3 iterations ***

         #    Occupation            Energy/Eh            Energy/eV
      -------------------------------------------------------------
         1        2.0000           -0.7121749             -19.3793
       ...           ...                  ...                  ...
        44        2.0000           -0.4270638             -11.6210
        45        2.0000           -0.4233500             -11.5199
        46        2.0000           -0.4217894             -11.4775
        47        2.0000           -0.4184734             -11.3872
        48        2.0000           -0.4067469             -11.0681
        49        2.0000           -0.3864130             -10.5148
        50        2.0000           -0.3700756             -10.0703 (HOMO)
        51                         -0.3220873              -8.7644 (LUMO)
        52                         -0.2702343              -7.3535
        53                         -0.2406114              -6.5474
        54                         -0.2293710              -6.2415
        55                         -0.1832183              -4.9856
       ...                                ...                  ...
        93                          0.7111766              19.3521
      -------------------------------------------------------------
                  HL-Gap            0.0479883 Eh            1.3058 eV
             Fermi-level           -0.3460814 Eh           -9.4174 eV

 SCC (total)                   0 d,  0 h,  0 min,  0.033 sec
 SCC setup                      ...        0 min,  0.003 sec (  7.686%)
 Dispersion                     ...        0 min,  0.000 sec (  0.748%)
 classical contributions        ...        0 min,  0.000 sec (  0.166%)
 integral evaluation            ...        0 min,  0.006 sec ( 17.817%)
 iterations                     ...        0 min,  0.005 sec ( 15.785%)
 molecular gradient             ...        0 min,  0.019 sec ( 57.137%)
 printout                       ...        0 min,  0.000 sec (  0.615%)

         :::::::::::::::::::::::::::::::::::::::::::::::::::::
         ::                     SUMMARY                     ::
         :::::::::::::::::::::::::::::::::::::::::::::::::::::
         :: total energy             -56.019303116946 Eh    ::
         :: total w/o Gsasa/hb       -56.013878595816 Eh    ::
         :: gradient norm              0.000047871299 Eh/a0 ::
         :: HOMO-LUMO gap              1.305826809110 eV    ::
         ::.................................................::
         :: SCC energy               -56.836281796811 Eh    ::
         :: -> isotropic ES            0.113136423877 Eh    ::
         :: -> anisotropic ES         -0.002935524231 Eh    ::
         :: -> anisotropic XC          0.018972355393 Eh    ::
         :: -> dispersion             -0.036967536761 Eh    ::
         :: -> Gsolv                  -0.025493205830 Eh    ::
         ::    -> Gelec               -0.020068684700 Eh    ::
         ::    -> Gsasa                0.001056374060 Eh    ::
         ::    -> Ghb                 -0.007561654889 Eh    ::
         ::    -> Gshift               0.001080759698 Eh    ::
         :: repulsion energy           0.816978679865 Eh    ::
         :: add. restraining           0.000000000000 Eh    ::
         :: total charge               0.000000000000 e     ::
         :::::::::::::::::::::::::::::::::::::::::::::::::::::

           ------------------------------------------------- 
          |                Numerical Hessian                |
           ------------------------------------------------- 
step length          :   0.00500
SCC accuracy         :   0.30000
Hessian scale factor :   1.00000
frozen atoms in %    :   0.00000    0
RMS gradient         :   0.00005
estimated CPU  time      0.12 min
estimated wall time      0.12 min

writing file <hessian>.

 projected vibrational frequencies (cm⁻¹)
eigval :       -0.00    -0.00    -0.00    -0.00     0.00     0.00
eigval :       17.48    32.04    38.63    65.20    90.16   106.08
eigval :      146.43   166.43   180.50   228.21   265.46   312.78
eigval :      314.37   328.54   354.58   366.10   380.43   384.66
eigval :      414.49   446.91   451.29   466.65   501.28   526.05
eigval :      565.72   598.76   619.05   654.45   669.09   671.35
eigval :      686.79   696.13   761.25   765.23   778.55   800.78
eigval :      854.68   877.81   888.95   893.98   903.74   919.56
eigval :      924.28   927.96   930.12  1011.38  1021.21  1077.27
eigval :     1085.24  1091.89  1109.70  1111.71  1167.99  1170.01
eigval :     1174.90  1187.54  1212.19  1220.33  1233.67  1263.13
eigval :     1271.59  1284.19  1290.90  1305.19  1327.87  1338.42
eigval :     1355.12  1383.75  1417.65  1432.06  1448.85  1454.91
eigval :     1458.25  1495.10  1518.02  1554.58  1570.96  1573.98
eigval :     1586.86  1616.53  2910.44  2974.13  2988.70  2995.39
eigval :     3088.55  3089.98  3093.89  3097.31  3102.79  3106.54
eigval :     3128.36  3237.18  3498.62
           -------------------------------------------------
          |                Property Printout                |
           -------------------------------------------------

    * Orbital Energies and Occupations

         #    Occupation            Energy/Eh            Energy/eV
      -------------------------------------------------------------
         1        2.0000           -0.7121749             -19.3793
       ...           ...                  ...                  ...
        38        2.0000           -0.4587634             -12.4836
        39        2.0000           -0.4559632             -12.4074
        40        2.0000           -0.4527173             -12.3191
        41        2.0000           -0.4501829             -12.2501
        42        2.0000           -0.4423099             -12.0359
        43        2.0000           -0.4340238             -11.8104
        44        2.0000           -0.4270638             -11.6210
        45        2.0000           -0.4233499             -11.5199
        46        2.0000           -0.4217894             -11.4775
        47        2.0000           -0.4184734             -11.3872
        48        2.0000           -0.4067469             -11.0681
        49        2.0000           -0.3864130             -10.5148
        50        2.0000           -0.3700755             -10.0703 (HOMO)
        51                         -0.3220873              -8.7644 (LUMO)
        52                         -0.2702343              -7.3535
        53                         -0.2406114              -6.5474
        54                         -0.2293710              -6.2415
        55                         -0.1832184              -4.9856
        56                         -0.1814248              -4.9368
        57                         -0.1085442              -2.9536
        58                         -0.0596054              -1.6219
        59                          0.0141805               0.3859
        60                          0.0531420               1.4461
        61                          0.0737320               2.0064
       ...                                ...                  ...
        93                          0.7111765              19.3521
      -------------------------------------------------------------
                  HL-Gap            0.0479882 Eh            1.3058 eV
             Fermi-level           -0.3460814 Eh           -9.4174 eV

     #   Z          covCN         q      C6AA      α(0)
     1   6 C        2.917    -0.026    28.652     8.778
     2   6 C        2.918    -0.025    28.618     8.772
     3   6 C        2.924    -0.020    28.518     8.757
     4   6 C        2.976    -0.012    28.316     8.729
     5   6 C        2.976    -0.018    28.445     8.748
     6   6 C        2.923    -0.019    28.475     8.751
     7   6 C        2.836     0.224    23.292     7.909
     8   8 O        0.858    -0.453    22.760     6.396
     9   6 C        2.972    -0.018    28.455     8.750
    10   6 C        2.926    -0.029    28.731     8.790
    11   6 C        2.912    -0.026    28.650     8.777
    12   6 C        2.920    -0.045    29.117     8.849
    13   6 C        2.897     0.097    25.841     8.335
    14   6 C        2.971    -0.056    29.391     8.893
    15   6 C        2.831     0.211    23.534     7.949
    16   8 O        0.858    -0.484    23.443     6.492
    17   7 N        2.691    -0.140    24.040     7.282
    18   6 C        3.735    -0.024    21.083     6.553
    19   6 C        3.674     0.069    19.647     6.352
    20   8 O        1.655    -0.506    23.030     6.478
    21   1 H        0.926     0.067     2.122     2.278
    22   1 H        0.926     0.068     2.109     2.271
    23   1 H        0.926     0.067     2.116     2.275
    24   1 H        0.926     0.063     2.167     2.302
    25   1 H        0.926     0.058     2.218     2.329
    26   1 H        0.926     0.067     2.116     2.275
    27   1 H        0.926     0.072     2.061     2.245
    28   1 H        0.860     0.224     0.991     1.559
    29   1 H        0.924     0.079     1.993     2.208
    30   1 H        0.924     0.079     1.990     2.206
    31   1 H        0.924     0.046     2.370     2.407
    32   1 H        0.924     0.055     2.255     2.349
    33   1 H        0.805     0.354     0.578     1.195

 Mol. C6AA /au·bohr⁶  :      14300.447812
 Mol. C8AA /au·bohr⁸  :     352009.561642
 Mol. α(0) /au        :        188.238526


Wiberg/Mayer (AO) data.
largest (>0.10) Wiberg bond orders for each atom

 ---------------------------------------------------------------------------
     #   Z sym  total        # sym  WBO       # sym  WBO       # sym  WBO
 ---------------------------------------------------------------------------
     1   6 C    3.980 --     6 C    1.448     2 C    1.421    21 H    0.967
     2   6 C    3.982 --     3 C    1.445     1 C    1.421    22 H    0.967
     3   6 C    3.981 --     2 C    1.445     4 C    1.392    23 H    0.964
     4   6 C    3.988 --     3 C    1.392     5 C    1.327    15 C    1.040
     5   6 C    3.988 --     6 C    1.384     4 C    1.327     7 C    1.050
     6   6 C    3.983 --     1 C    1.448     5 C    1.384    24 H    0.965
     7   6 C    3.924 --     8 O    1.701     5 C    1.050     9 C    1.049
     8   8 O    1.978 --     7 C    1.701
     9   6 C    3.988 --    10 C    1.436    14 C    1.278     7 C    1.049
    10   6 C    3.981 --     9 C    1.436    11 C    1.351    25 H    0.965
    11   6 C    3.986 --    12 C    1.533    10 C    1.351    26 H    0.966
    12   6 C    3.982 --    11 C    1.533    13 C    1.253    27 H    0.958
    13   6 C    3.973 --    17 N    1.314    12 C    1.253    14 C    1.236
    14   6 C    3.978 --     9 C    1.278    13 C    1.236    15 C    1.150
    15   6 C    3.941 --    16 O    1.600    14 C    1.150     4 C    1.040
    16   8 O    1.979 --    15 C    1.600
    17   7 N    3.490 --    13 C    1.314    18 C    1.005    28 H    0.876
    18   6 C    3.966 --    17 N    1.005    19 C    0.973    30 H    0.967
                            29 H    0.960
    19   6 C    3.949 --    20 O    1.002    18 C    0.973    32 H    0.972
                            31 H    0.968
    20   8 O    1.926 --    19 C    1.002    33 H    0.861
    21   1 H    0.995 --     1 C    0.967
    22   1 H    0.995 --     2 C    0.967
    23   1 H    0.995 --     3 C    0.964
    24   1 H    0.996 --     6 C    0.965
    25   1 H    0.996 --    10 C    0.965
    26   1 H    0.994 --    11 C    0.966
    27   1 H    0.994 --    12 C    0.958
    28   1 H    0.949 --    17 N    0.876
    29   1 H    0.993 --    18 C    0.960
    30   1 H    0.993 --    18 C    0.967
    31   1 H    0.995 --    19 C    0.968
    32   1 H    0.997 --    19 C    0.972
    33   1 H    0.875 --    20 O    0.861
 ---------------------------------------------------------------------------

Topologies differ in total number of bonds
Writing topology from bond orders to xtbtopo.mol

molecular dipole:
                 x           y           z       tot (Debye)
 q only:        2.326      -0.730      -0.563
   full:        2.324      -0.699      -0.570       6.337
molecular quadrupole (traceless):
                xx          xy          yy          xz          yz          zz
 q only:       30.852      15.762     -16.584      -7.689      -0.942     -14.268
  q+dip:       35.414      17.571     -14.809      -8.967      -1.370     -20.606
   full:       32.286      17.166     -18.073      -7.460      -1.549     -14.213

           -------------------------------------------------
          |                Geometry Summary                 |
           -------------------------------------------------

      molecular mass/u    :      267.2799221
   center of mass at/Å    :       -0.0008512      -0.0048386      -0.0114437
  moments of inertia/u·Å² :        0.7842659E+03   0.2144245E+04   0.2748853E+04
rotational constants/cm⁻¹ :        0.2149479E-01   0.7861803E-02   0.6132606E-02

 * 30 selected distances

     #   Z          #   Z                                           value/Å
     1   6 C        2   6 C                                       1.3881253
     2   6 C        3   6 C                                       1.3824032
     3   6 C        4   6 C                                       1.3934852
     4   6 C        5   6 C                                       1.3991424
     1   6 C        6   6 C                                       1.3818301
     5   6 C        6   6 C                                       1.3938883
     7   6 C        8   8 O                                       1.2299898
     9   6 C       10   6 C                                       1.3838002
    10   6 C       11   6 C                                       1.3922264
    11   6 C       12   6 C                                       1.3680203
    12   6 C       13   6 C                                       1.4155809
     9   6 C       14   6 C                                       1.4157631
    13   6 C       14   6 C                                       1.4305392
    15   6 C       16   8 O                                       1.2447731
    13   6 C       17   7 N                                       1.3412124
    17   7 N       18   6 C                                       1.4401461 (max)
    19   6 C       20   8 O                                       1.4089406
     1   6 C       21   1 H                                       1.0786000
     2   6 C       22   1 H                                       1.0787283
     3   6 C       23   1 H                                       1.0799724
     6   6 C       24   1 H                                       1.0800267
    10   6 C       25   1 H                                       1.0791741
    11   6 C       26   1 H                                       1.0786364
    12   6 C       27   1 H                                       1.0760795
    17   7 N       28   1 H                                       1.0195312
    18   6 C       29   1 H                                       1.0903510
    18   6 C       30   1 H                                       1.0908409
    19   6 C       31   1 H                                       1.0957555
    19   6 C       32   1 H                                       1.0928727
    20   8 O       33   1 H                                       0.9670163 (min)

 * 6 distinct bonds (by element types)

   Z      Z             #   av. dist./Å        max./Å        min./Å
   1 H    6 C          11     1.0837307     1.0957555     1.0760795
   6 C    6 C          12     1.3954004     1.4305392     1.3680203
   1 H    7 N           1     1.0195312     1.0195312     1.0195312
   6 C    7 N           2     1.3906792     1.4401461     1.3412124
   1 H    8 O           1     0.9670163     0.9670163     0.9670163
   6 C    8 O           3     1.2945678     1.4089406     1.2299898

           -------------------------------------------------
          |               Frequency Printout                |
           -------------------------------------------------
 projected vibrational frequencies (cm⁻¹)
eigval :       -0.00    -0.00    -0.00    -0.00     0.00     0.00
eigval :       17.48    32.04    38.63    65.20    90.16   106.08
eigval :      146.43   166.43   180.50   228.21   265.46   312.78
eigval :      314.37   328.54   354.58   366.10   380.43   384.66
eigval :      414.49   446.91   451.29   466.65   501.28   526.05
eigval :      565.72   598.76   619.05   654.45   669.09   671.35
eigval :      686.79   696.13   761.25   765.23   778.55   800.78
eigval :      854.68   877.81   888.95   893.98   903.74   919.56
eigval :      924.28   927.96   930.12  1011.38  1021.21  1077.27
eigval :     1085.24  1091.89  1109.70  1111.71  1167.99  1170.01
eigval :     1174.90  1187.54  1212.19  1220.33  1233.67  1263.13
eigval :     1271.59  1284.19  1290.90  1305.19  1327.87  1338.42
eigval :     1355.12  1383.75  1417.65  1432.06  1448.85  1454.91
eigval :     1458.25  1495.10  1518.02  1554.58  1570.96  1573.98
eigval :     1586.86  1616.53  2910.44  2974.13  2988.70  2995.39
eigval :     3088.55  3089.98  3093.89  3097.31  3102.79  3106.54
eigval :     3128.36  3237.18  3498.62
 reduced masses (amu)
   1: 11.93   2: 12.17   3: 12.17   4: 12.27   5: 11.92   6: 12.27   7: 13.17   8: 13.16
   9: 13.01  10: 12.57  11:  8.88  12: 11.79  13: 11.91  14: 11.01  15: 10.45  16: 10.93
  17: 11.17  18: 11.85  19:  6.60  20: 11.61  21:  7.07  22: 11.96  23:  9.62  24: 10.87
  25: 14.85  26: 10.27  27: 11.24  28: 13.22  29: 10.65  30:  8.73  31: 11.39  32: 11.33
  33: 10.67  34: 10.59  35: 10.66  36: 10.42  37:  6.51  38:  8.76  39: 10.34  40: 11.47
  41:  5.10  42:  5.53  43: 10.77  44:  4.01  45: 10.26  46:  3.60  47:  8.43  48:  3.77
  49:  8.73  50:  4.10  51:  3.52  52:  7.24  53:  9.18  54: 11.80  55:  6.08  56:  9.17
  57:  4.99  58:  6.45  59:  6.10  60:  2.90  61:  5.89  62:  2.40  63:  6.78  64:  2.98
  65:  4.28  66:  8.38  67:  6.74  68:  7.53  69:  3.35  70:  4.50  71:  3.14  72: 12.00
  73: 10.86  74: 10.22  75:  9.67  76:  9.49  77:  2.56  78:  1.85  79:  9.64  80: 10.74
  81: 11.23  82: 12.54  83: 11.77  84: 11.82  85: 11.90  86: 12.97  87:  1.76  88:  1.69
  89:  1.85  90:  1.62  91:  1.77  92:  1.80  93:  1.78  94:  1.85  95:  1.87  96:  1.92
  97:  1.84  98:  1.86  99:  1.88
 IR intensities (km·mol⁻¹)
   1:  0.55   2:  0.05   3:  0.06   4:  0.15   5:  0.48   6:  0.45   7:  5.01   8:  1.62
   9:  8.93  10:  0.21  11:  4.32  12:  0.42  13:  3.26  14:  2.43  15:  2.38  16:  3.10
  17:  3.42  18:  2.28  19:202.54  20: 60.59  21: 41.25  22:  7.50  23:  0.26  24:  0.67
  25: 45.91  26:  1.11  27:  4.90  28:  5.07  29:  6.93  30:  5.96  31:  7.50  32:  2.13
  33:  1.78  34: 35.97  35: 20.34  36:  5.64  37: 38.72  38:162.35  39:  0.19  40:  1.52
  41:  1.53  42: 15.54  43: 13.15  44:  0.30  45:  4.46  46:  0.00  47: 32.12  48:  0.31
  49:  7.76  50:  0.04  51:  0.03  52: 71.74  53: 86.41  54:120.37  55:  0.29  56:  5.47
  57: 73.96  58:  6.64  59:  3.88  60:  1.23  61: 20.90  62: 18.28  63: 14.46  64: 26.19
  65:  2.51  66:147.70  67:105.83  68:749.72  69:101.06  70:186.03  71: 39.48  72: 26.60
  73:  8.34  74: 55.59  75: 37.04  76:205.87  77: 25.98  78:  0.84  79: 22.62  80:505.39
  81:196.72  82:468.65  83:408.52  84: 24.54  85:522.73  86:406.81  87:111.70  88: 22.38
  89: 39.97  90: 52.00  91:  8.32  92:  0.81  93: 14.98  94: 48.55  95: 51.98  96: 86.91
  97: 30.88  98:156.29  99: 94.74
 Raman intensities (Ä⁴*amu⁻¹)
   1:  0.00   2:  0.00   3:  0.00   4:  0.00   5:  0.00   6:  0.00   7:  0.00   8:  0.00
   9:  0.00  10:  0.00  11:  0.00  12:  0.00  13:  0.00  14:  0.00  15:  0.00  16:  0.00
  17:  0.00  18:  0.00  19:  0.00  20:  0.00  21:  0.00  22:  0.00  23:  0.00  24:  0.00
  25:  0.00  26:  0.00  27:  0.00  28:  0.00  29:  0.00  30:  0.00  31:  0.00  32:  0.00
  33:  0.00  34:  0.00  35:  0.00  36:  0.00  37:  0.00  38:  0.00  39:  0.00  40:  0.00
  41:  0.00  42:  0.00  43:  0.00  44:  0.00  45:  0.00  46:  0.00  47:  0.00  48:  0.00
  49:  0.00  50:  0.00  51:  0.00  52:  0.00  53:  0.00  54:  0.00  55:  0.00  56:  0.00
  57:  0.00  58:  0.00  59:  0.00  60:  0.00  61:  0.00  62:  0.00  63:  0.00  64:  0.00
  65:  0.00  66:  0.00  67:  0.00  68:  0.00  69:  0.00  70:  0.00  71:  0.00  72:  0.00
  73:  0.00  74:  0.00  75:  0.00  76:  0.00  77:  0.00  78:  0.00  79:  0.00  80:  0.00
  81:  0.00  82:  0.00  83:  0.00  84:  0.00  85:  0.00  86:  0.00  87:  0.00  88:  0.00
  89:  0.00  90:  0.00  91:  0.00  92:  0.00  93:  0.00  94:  0.00  95:  0.00  96:  0.00
  97:  0.00  98:  0.00  99:  0.00
 output can be read by thermo (or use thermo option).
 writing <g98.out> molden fake output.
 recommended (thermochemical) frequency scaling factor: 1.0
           -------------------------------------------------
          |             Thermodynamic Functions             |
           -------------------------------------------------

Molecule has no symmetry elements
It seems to be the C1 point group
c1  symmetry found (for desy threshold:  0.10E+00) used in thermo

          ...................................................
          :                      SETUP                      :
          :.................................................:
          :  # frequencies                          93      :
          :  # imaginary freq.                       0      :
          :  linear?                             false      :
          :  only rotor calc.                    false      :
          :  symmetry                               c1      :
          :  rotational number                       1      :
          :  scaling factor                  1.0000000      :
          :  rotor cutoff                    0.0000000 cm⁻¹ :
          :  imag. cutoff                 -100.0000000 cm⁻¹ :
          :.................................................:

    mode    ω/cm⁻¹     T·S(HO)/kcal·mol⁻¹    T·S(FR)/kcal·mol⁻¹   T·S(vib)
   ------------------------------------------------------------------------
       1     17.48    -2.05770 (100.00%)    -1.36773 (  0.00%)    -2.05770
       2     32.04    -1.69921 (100.00%)    -1.18835 (  0.00%)    -1.69921
       3     38.63    -1.58851 (100.00%)    -1.13287 (  0.00%)    -1.58851
       4     65.20    -1.28000 (100.00%)    -0.97786 (  0.00%)    -1.28000
       5     90.16    -1.09023 (100.00%)    -0.88188 (  0.00%)    -1.09023
       6    106.08    -0.99564 (100.00%)    -0.83370 (  0.00%)    -0.99564
       7    146.43    -0.81042 (100.00%)    -0.73822 (  0.00%)    -0.81042
       8    166.43    -0.73804 (100.00%)    -0.70028 (  0.00%)    -0.73804
       9    180.50    -0.69268 (100.00%)    -0.67625 (  0.00%)    -0.69268
      10    228.21    -0.56440 (100.00%)    -0.60677 (  0.00%)    -0.56440
      11    265.46    -0.48468 (100.00%)    -0.56199 (  0.00%)    -0.48468
   ------------------------------------------------------------------------

   temp. (K)  partition function   enthalpy   heat capacity  entropy
                                   cal/mol     cal/K/mol   cal/K/mol   J/K/mol
 298.15  VIB  0.280E+07             8916.625     60.512     59.409
         ROT  0.519E+07              888.752      2.981     33.710
         INT  0.146E+14             9805.377     63.493     93.119
         TR   0.423E+28             1481.254      4.968     42.629
         TOT                       11286.6312    68.4610   135.7484   567.9714

       T/K    H(0)-H(T)+PV         H(T)/Eh          T*S/Eh         G(T)/Eh
   ------------------------------------------------------------------------
    298.15    0.179864E-01    0.266552E+00    0.644985E-01    0.202054E+00
   ------------------------------------------------------------------------

         :::::::::::::::::::::::::::::::::::::::::::::::::::::
         ::                  THERMODYNAMIC                  ::
         :::::::::::::::::::::::::::::::::::::::::::::::::::::
         :: total free energy         -55.817249351017 Eh   ::
         ::.................................................::
         :: total energy              -56.019303116859 Eh   ::
         :: zero point energy           0.248565834491 Eh   ::
         :: G(RRHO) w/o ZPVE           -0.046512068649 Eh   ::
         :: G(RRHO) contrib.            0.202053765842 Eh   ::
         :::::::::::::::::::::::::::::::::::::::::::::::::::::

optimized geometry written to: xtbopt.coord


           -------------------------------------------------
          | TOTAL ENERGY              -56.019303116859 Eh   |
          | TOTAL ENTHALPY            -55.752750890595 Eh   |
          | TOTAL FREE ENERGY         -55.817249351017 Eh   |
          | GRADIENT NORM               0.000047877977 Eh/α |
          | HOMO-LUMO GAP               1.305825480937 eV   |
           -------------------------------------------------

------------------------------------------------------------------------
 * finished run on 2025/04/11 at 18:22:03.146     
------------------------------------------------------------------------
 total:
 * wall-time:     0 d,  0 h,  0 min,  9.319 sec
 *  cpu-time:     0 d,  0 h,  0 min,  9.179 sec
 * ratio c/w:     0.985 speedup
 SCF:
 * wall-time:     0 d,  0 h,  0 min,  0.076 sec
 *  cpu-time:     0 d,  0 h,  0 min,  0.051 sec
 * ratio c/w:     0.675 speedup
 ANC optimizer:
 * wall-time:     0 d,  0 h,  0 min,  1.681 sec
 *  cpu-time:     0 d,  0 h,  0 min,  1.659 sec
 * ratio c/w:     0.987 speedup
 analytical hessian:
 * wall-time:     0 d,  0 h,  0 min,  7.485 sec
 *  cpu-time:     0 d,  0 h,  0 min,  7.446 sec
 * ratio c/w:     0.995 speedup

