      -----------------------------------------------------------      
     |                   =====================                   |     
     |                           x T B                           |     
     |                   =====================                   |     
     |                         S. Grimme                         |     
     |          Mulliken Center for Theoretical Chemistry        |     
     |                    University of Bonn                     |     
      -----------------------------------------------------------      

   * xtb version 6.7.1 (edcfbbe) compiled by 'albert@albert-system' on 2024-07-22

   xtb is free software: you can redistribute it and/or modify it under
   the terms of the GNU Lesser General Public License as published by
   the Free Software Foundation, either version 3 of the License, or
   (at your option) any later version.
   
   xtb is distributed in the hope that it will be useful,
   but WITHOUT ANY WARRANTY; without even the implied warranty of
   MERCHANTABILITY or FITNESS FOR A PARTICULAR PURPOSE.  See the
   GNU Lesser General Public License for more details.
   
   Cite this work as:
   * C. Bannwarth, E. Caldeweyher, S. Ehlert, A. Hansen, P. Pracht,
     J. Seibert, S. Spicher, S. Grimme, WIREs Comput. Mol. Sci., 2020, 11,
     e01493. DOI: 10.1002/wcms.1493
   
   for GFN2-xTB:
   * C. Bannwarth, S. Ehlert and S. Grimme., J. Chem. Theory Comput., 2019,
     15, 1652-1671. DOI: 10.1021/acs.jctc.8b01176
   for GFN1-xTB:
   * S. Grimme, C. Bannwarth, P. Shushkov, J. Chem. Theory Comput., 2017,
     13, 1989-2009. DOI: 10.1021/acs.jctc.7b00118
   for GFN0-xTB:
   * P. Pracht, E. Caldeweyher, S. Ehlert, S. Grimme, ChemRxiv, 2019, preprint.
     DOI: 10.26434/chemrxiv.8326202.v1
   for GFN-FF:
   * S. Spicher and S. Grimme, Angew. Chem. Int. Ed., 2020, 59, 15665-15673.
     DOI: 10.1002/anie.202004239
   
   for ALPB and GBSA implicit solvation:
   * S. Ehlert, M. Stahn, S. Spicher, S. Grimme, J. Chem. Theory Comput.,
     2021, 17, 4250-4261. DOI: 10.1021/acs.jctc.1c00471
   
   for ddCOSMO and CPCM-X implicit solvation:
   * M. Stahn, S. Ehlert, S. Grimme, J. Phys. Chem. A,
     2023, XX, XXXX-XXXX. DOI: 10.1021/acs.jpca.3c04382
   
   for DFT-D4:
   * E. Caldeweyher, C. Bannwarth and S. Grimme, J. Chem. Phys., 2017,
     147, 034112. DOI: 10.1063/1.4993215
   * E. Caldeweyher, S. Ehlert, A. Hansen, H. Neugebauer, S. Spicher,
     C. Bannwarth and S. Grimme, J. Chem. Phys., 2019, 150, 154122.
     DOI: 10.1063/1.5090222
   * E. Caldeweyher, J.-M. Mewes, S. Ehlert and S. Grimme, Phys. Chem. Chem. Phys.
     2020, 22, 8499-8512. DOI: 10.1039/D0CP00502A
   
   for sTDA-xTB:
   * S. Grimme and C. Bannwarth, J. Chem. Phys., 2016, 145, 054103.
     DOI: 10.1063/1.4959605
   
   in the mass-spec context:
   * V. Asgeirsson, C. Bauer and S. Grimme, Chem. Sci., 2017, 8, 4879.
     DOI: 10.1039/c7sc00601b
   * J. Koopman and S. Grimme, ACS Omega 2019, 4, 12, 15120-15133.
     DOI: 10.1021/acsomega.9b02011
   
   for metadynamics refer to:
   * S. Grimme, J. Chem. Theory Comput., 2019, 155, 2847-2862
     DOI: 10.1021/acs.jctc.9b00143
   
   for SPH calculations refer to:
   * S. Spicher and S. Grimme, J. Chem. Theory Comput., 2021, 17, 1701-1714
     DOI: 10.1021/acs.jctc.0c01306
   
   for ONIOM refer to:
   * C. Plett, A. Katbashev, S. Ehlert, S. Grimme, M. Bursch,
     Phys. Chem. Chem. Phys., 2023, 25, 17860-17868. DOI: 10.1039/D3CP02178E
   
   for DIPRO refer to:
   * J. Kohn, N. Gildemeister, S. Grimme, D. Fazzi, A. Hansen,
     J. Chem. Phys., 2023, just accepted.
   
   for PTB refer to:
   * S. Grimme, M. Mueller, A. Hansen, J. Chem. Phys., 2023, 158, 124111.
     DOI: 10.1063/5.0137838
   
   with help from (in alphabetical order)
   P. Atkinson, C. Bannwarth, F. Bohle, G. Brandenburg, E. Caldeweyher
   M. Checinski, S. Dohm, S. Ehlert, S. Ehrlich, I. Gerasimov, C. Hölzer
   A. Katbashev, J. Kohn, J. Koopman, C. Lavigne, S. Lehtola, F. März, M. Müller,
   F. Musil, H. Neugebauer, J. Pisarek, C. Plett, P. Pracht, F. Pultar,
   J. Seibert, P. Shushkov, S. Spicher, M. Stahn, M. Steiner, T. Strunk,
   J. Stückrath, T. Rose, and J. Unsleber
   
 * started run on 2025/04/11 at 17:46:08.979     
   ID    Z sym.   atoms
    1    6 C      1-4, 7, 8
    2    8 O      5, 6
    3    1 H      9-20

           -------------------------------------------------
          |                Calculation Setup                |
           -------------------------------------------------

          program call               : /srv/scratch/z5358697/.xtb/bin/xtb xtb_rrho.coord --gfn2 --ohess vtight --chrg 0 --enso --norestart -I rrho-xcontrol-inp --parallel 1 --alpb water
          hostname                   : k061
          coordinate file            : xtb_rrho.coord
          omp threads                :                     1


           -------------------------------------------------
          |                 G F N 2 - x T B                 |
           -------------------------------------------------

        Reference                      10.1021/acs.jctc.8b01176
      * Hamiltonian:
        H0-scaling (s, p, d)           1.850000    2.230000    2.230000
        zeta-weighting                 0.500000
      * Dispersion:
        s8                             2.700000
        a1                             0.520000
        a2                             5.000000
        s9                             5.000000
      * Repulsion:
        kExp                           1.500000    1.000000
        rExp                           1.000000
      * Coulomb:
        alpha                          2.000000
        third order                    shell-resolved
        anisotropic                    true
        a3                             3.000000
        a5                             4.000000
        cn-shift                       1.200000
        cn-exp                         4.000000
        max-rad                        5.000000

      * Solvation model:               ALPB
        Solvent                        water
        Parameter file                 internal GFN2-xTB/ALPB
        Dielectric constant                8.0200E+01
        Reference state                gsolv [1 M gas/solution]
        Free energy shift                  1.0808E-03 Eh       6.7819E-01 kcal/mol
        Temperature                        2.9815E+02 K
        Density                            1.0000E+00 kg/L
        Solvent mass                       1.8000E+01 g/mol
        Interaction kernel             P16
        Born radius scaling (c1)           1.4744E+00
        Born radii integrator          GBOBC
        Born offset                        0.0000E+00 a0       0.0000E+00 AA
        H-bond correction              true
        Ion screening                  false
        Surface tension                    1.0000E-05 Eh       1.5569E+01 dyn/cm
        Grid points                               974 per atom

          ...................................................
          :                      SETUP                      :
          :.................................................:
          :  # basis functions                  44          :
          :  # atomic orbitals                  44          :
          :  # shells                           28          :
          :  # electrons                        48          :
          :  max. iterations                   250          :
          :  Hamiltonian                  GFN2-xTB          :
          :  restarted?                      false          :
          :  GBSA solvation                   true          :
          :  PC potential                    false          :
          :  electronic temp.          300.0000000     K    :
          :  accuracy                    1.0000000          :
          :  -> integral cutoff          0.2500000E+02      :
          :  -> integral neglect         0.1000000E-07      :
          :  -> SCF convergence          0.1000000E-05 Eh   :
          :  -> wf. convergence          0.1000000E-03 e    :
          :  Broyden damping             0.4000000          :
          :  net charge                          0          :
          :  unpaired electrons                  0          :
          ...................................................

 iter      E             dE          RMSdq      gap      omega  full diag
   1    -27.3585807 -0.273586E+02  0.397E+00    5.64       0.0  T
   2    -27.4211689 -0.625881E-01  0.197E+00    4.70       1.0  T
   3    -27.4231491 -0.198026E-02  0.103E+00    5.04       1.0  T
   4    -27.4247754 -0.162629E-02  0.167E-01    4.79       1.0  T
   5    -27.4249989 -0.223522E-03  0.706E-02    4.85       1.0  T
   6    -27.4250010 -0.210360E-05  0.239E-02    4.84       1.0  T
   7    -27.4250020 -0.917749E-06  0.430E-03    4.84       5.2  T
   8    -27.4250020 -0.304784E-07  0.248E-03    4.84       9.0  T
   9    -27.4250020 -0.983658E-08  0.390E-04    4.84      57.4  T
  10    -27.4250020 -0.398018E-09  0.210E-04    4.84     106.5  T

   *** convergence criteria satisfied after 10 iterations ***

         #    Occupation            Energy/Eh            Energy/eV
      -------------------------------------------------------------
         1        2.0000           -0.7448282             -20.2678
       ...           ...                  ...                  ...
        18        2.0000           -0.4728421             -12.8667
        19        2.0000           -0.4641378             -12.6298
        20        2.0000           -0.4505225             -12.2593
        21        2.0000           -0.4463947             -12.1470
        22        2.0000           -0.4396602             -11.9638
        23        2.0000           -0.4356967             -11.8559
        24        2.0000           -0.4207607             -11.4495 (HOMO)
        25                         -0.2427221              -6.6048 (LUMO)
        26                         -0.0274763              -0.7477
        27                          0.0864453               2.3523
        28                          0.1016757               2.7667
        29                          0.1218224               3.3150
       ...                                ...                  ...
        44                          0.5830538              15.8657
      -------------------------------------------------------------
                  HL-Gap            0.1780386 Eh            4.8447 eV
             Fermi-level           -0.3317414 Eh           -9.0271 eV

 SCC (total)                   0 d,  0 h,  0 min,  0.027 sec
 SCC setup                      ...        0 min,  0.001 sec (  4.429%)
 Dispersion                     ...        0 min,  0.000 sec (  0.398%)
 classical contributions        ...        0 min,  0.000 sec (  0.080%)
 integral evaluation            ...        0 min,  0.002 sec (  5.729%)
 iterations                     ...        0 min,  0.020 sec ( 72.692%)
 molecular gradient             ...        0 min,  0.004 sec ( 16.184%)
 printout                       ...        0 min,  0.000 sec (  0.431%)

         :::::::::::::::::::::::::::::::::::::::::::::::::::::
         ::                     SUMMARY                     ::
         :::::::::::::::::::::::::::::::::::::::::::::::::::::
         :: total energy             -27.120999948852 Eh    ::
         :: total w/o Gsasa/hb       -27.120977501916 Eh    ::
         :: gradient norm              0.034975254721 Eh/a0 ::
         :: HOMO-LUMO gap              4.844676809825 eV    ::
         ::.................................................::
         :: SCC energy               -27.424967309018 Eh    ::
         :: -> isotropic ES            0.059896265690 Eh    ::
         :: -> anisotropic ES          0.001240447905 Eh    ::
         :: -> anisotropic XC          0.008797455417 Eh    ::
         :: -> dispersion             -0.011446568124 Eh    ::
         :: -> Gsolv                  -0.009303275071 Eh    ::
         ::    -> Gelec               -0.009280828135 Eh    ::
         ::    -> Gsasa                0.001155128615 Eh    ::
         ::    -> Ghb                 -0.002258335250 Eh    ::
         ::    -> Gshift               0.001080759698 Eh    ::
         :: repulsion energy           0.303967360166 Eh    ::
         :: add. restraining           0.000000000000 Eh    ::
         :: total charge              -0.000000000000 e     ::
         :::::::::::::::::::::::::::::::::::::::::::::::::::::

      ----------------------------------------------------------- 
     |                   =====================                   |
     |                        A N C O P T                        |
     |                   =====================                   |
     |               Approximate Normal Coordinate               |
     |                Rational Function Optimizer                |
      ----------------------------------------------------------- 
      ----------------------------------------------------------- 
     |                   =====================                   |
     |                        A N C O P T                        |
     |                   =====================                   |
     |               Approximate Normal Coordinate               |
     |                Rational Function Optimizer                |
      ----------------------------------------------------------- 

          ...................................................
          :                      SETUP                      :
          :.................................................:
          :   optimization level         verytight          :
          :   max. optcycles                   400          :
          :   ANC micro-cycles                  20          :
          :   degrees of freedom                54          :
          :.................................................:
          :   RF solver                   davidson          :
          :   write xtbopt.log                true          :
          :   linear?                        false          :
          :   energy convergence         0.1000000E-06 Eh   :
          :   grad. convergence          0.2000000E-03 Eh/α :
          :   maxmium RF displ.          1.0000000          :
          :   Hlow (freq-cutoff)         0.1000000E-01      :
          :   Hmax (freq-cutoff)         5.0000000          :
          :   S6 in model hess.         20.0000000          :
          ...................................................

generating ANC from exact Hessian ...
Using Lindh-Hessian (1995)
 Shifting diagonal of input Hessian by   8.992558441539388E-003
 Lowest  eigenvalues of input Hessian
    0.000000    0.000000    0.000000    0.000000    0.000000    0.000000
    0.010000    0.010866    0.012575    0.015538    0.016411    0.018408
    0.022970    0.024984    0.033158    0.038684    0.047764    0.050812
 Highest eigenvalues
    1.191141    1.241840    1.260894    1.294634    1.735158    2.262163
 

........................................................................
.............................. CYCLE    1 ..............................
........................................................................

 iter      E             dE          RMSdq      gap      omega  full diag
   1    -27.4250020 -0.274250E+02  0.557E-05    4.84       0.0  T
   2    -27.4250020 -0.128324E-10  0.350E-05    4.84     639.5  T
   3    -27.4250020 -0.216716E-11  0.221E-05    4.84    1011.8  T
     SCC iter.                  ...        0 min,  0.001 sec
     gradient                   ...        0 min,  0.005 sec
 * total energy  :   -27.1209999 Eh     change       -0.9514878E-10 Eh
   gradient norm :     0.0349750 Eh/α   predicted     0.0000000E+00 (-100.00%)
   displ. norm   :     0.1064068 α      lambda       -0.1873812E-02
   maximum displ.:     0.0340752 α      in ANC's #10, #17, #16, ...

........................................................................
.............................. CYCLE    2 ..............................
........................................................................

 iter      E             dE          RMSdq      gap      omega  full diag
   1    -27.4357544 -0.274358E+02  0.106E-01    4.96       0.0  T
   2    -27.4357753 -0.209111E-04  0.615E-02    4.94       1.0  T
   3    -27.4357752  0.105159E-06  0.232E-02    4.95       1.0  T
   4    -27.4357774 -0.217168E-05  0.363E-03    4.94       6.2  T
   5    -27.4357774 -0.476921E-07  0.167E-03    4.94      13.4  T
   6    -27.4357774 -0.322087E-08  0.429E-04    4.94      52.1  T
   7    -27.4357774 -0.173280E-09  0.174E-04    4.94     128.7  T
     SCC iter.                  ...        0 min,  0.003 sec
     gradient                   ...        0 min,  0.005 sec
 * total energy  :   -27.1222028 Eh     change       -0.1202851E-02 Eh
   gradient norm :     0.0130006 Eh/α   predicted    -0.9475171E-03 ( -21.23%)
   displ. norm   :     0.0838400 α      lambda       -0.3812615E-03
   maximum displ.:     0.0466800 α      in ANC's #5, #8, #10, ...

........................................................................
.............................. CYCLE    3 ..............................
........................................................................

 iter      E             dE          RMSdq      gap      omega  full diag
   1    -27.4397666 -0.274398E+02  0.475E-02    4.99       0.0  T
   2    -27.4397779 -0.112350E-04  0.273E-02    4.97       1.0  T
   3    -27.4397782 -0.360146E-06  0.136E-02    4.98       1.6  T
   4    -27.4397783 -0.866053E-07  0.327E-03    4.97       6.8  T
   5    -27.4397784 -0.784374E-07  0.924E-04    4.97      24.2  T
   6    -27.4397784 -0.124132E-08  0.299E-04    4.97      74.7  T
     SCC iter.                  ...        0 min,  0.002 sec
     gradient                   ...        0 min,  0.005 sec
 * total energy  :   -27.1224278 Eh     change       -0.2250302E-03 Eh
   gradient norm :     0.0041479 Eh/α   predicted    -0.1919989E-03 ( -14.68%)
   displ. norm   :     0.0523136 α      lambda       -0.5834965E-04
   maximum displ.:     0.0358783 α      in ANC's #5, #4, #7, ...

........................................................................
.............................. CYCLE    4 ..............................
........................................................................

 iter      E             dE          RMSdq      gap      omega  full diag
   1    -27.4396417 -0.274396E+02  0.214E-02    4.97       0.0  T
   2    -27.4396431 -0.133575E-05  0.125E-02    4.97       1.8  T
   3    -27.4396431 -0.377072E-07  0.469E-03    4.97       4.8  T
   4    -27.4396431 -0.802652E-08  0.606E-04    4.97      36.9  T
   5    -27.4396431 -0.145375E-08  0.382E-04    4.97      58.6  T
     SCC iter.                  ...        0 min,  0.002 sec
     gradient                   ...        0 min,  0.005 sec
 * total energy  :   -27.1224680 Eh     change       -0.4015644E-04 Eh
   gradient norm :     0.0018121 Eh/α   predicted    -0.2925646E-04 ( -27.14%)
   displ. norm   :     0.0840250 α      lambda       -0.2986486E-04
   maximum displ.:     0.0550274 α      in ANC's #5, #4, #6, ...

........................................................................
.............................. CYCLE    5 ..............................
........................................................................

 iter      E             dE          RMSdq      gap      omega  full diag
   1    -27.4386536 -0.274387E+02  0.270E-02    4.96       0.0  T
   2    -27.4386542 -0.527771E-06  0.160E-02    4.96       1.4  T
   3    -27.4386542 -0.112309E-07  0.295E-03    4.96       7.6  T
   4    -27.4386542 -0.390703E-07  0.885E-04    4.96      25.3  T
   5    -27.4386542 -0.498002E-08  0.489E-04    4.96      45.7  T
     SCC iter.                  ...        0 min,  0.002 sec
     gradient                   ...        0 min,  0.005 sec
 * total energy  :   -27.1224872 Eh     change       -0.1922534E-04 Eh
   gradient norm :     0.0023408 Eh/α   predicted    -0.1500055E-04 ( -21.98%)
   displ. norm   :     0.0111307 α      lambda       -0.6902845E-05
   maximum displ.:     0.0061769 α      in ANC's #4, #6, #2, ...

........................................................................
.............................. CYCLE    6 ..............................
........................................................................

 iter      E             dE          RMSdq      gap      omega  full diag
   1    -27.4387571 -0.274388E+02  0.752E-03    4.96       0.0  T
   2    -27.4387572 -0.134167E-06  0.442E-03    4.96       5.1  T
   3    -27.4387572 -0.336167E-08  0.147E-03    4.96      15.2  T
   4    -27.4387572 -0.746070E-09  0.151E-04    4.96     148.1  T
   5    -27.4387572 -0.275797E-10  0.849E-05    4.96     263.5  T
     SCC iter.                  ...        0 min,  0.002 sec
     gradient                   ...        0 min,  0.005 sec
 * total energy  :   -27.1224923 Eh     change       -0.5069940E-05 Eh
   gradient norm :     0.0013245 Eh/α   predicted    -0.3485811E-05 ( -31.25%)
   displ. norm   :     0.0291145 α      lambda       -0.5661323E-05
   maximum displ.:     0.0178666 α      in ANC's #4, #6, #2, ...

........................................................................
.............................. CYCLE    7 ..............................
........................................................................

 iter      E             dE          RMSdq      gap      omega  full diag
   1    -27.4391649 -0.274392E+02  0.160E-02    4.97       0.0  T
   2    -27.4391654 -0.522987E-06  0.943E-03    4.97       2.4  T
   3    -27.4391654 -0.160624E-07  0.283E-03    4.97       7.9  T
   4    -27.4391654 -0.431952E-08  0.396E-04    4.97      56.5  T
   5    -27.4391654 -0.444452E-09  0.246E-04    4.97      90.8  T
     SCC iter.                  ...        0 min,  0.002 sec
     gradient                   ...        0 min,  0.005 sec
 * total energy  :   -27.1224952 Eh     change       -0.2913191E-05 Eh
   gradient norm :     0.0009851 Eh/α   predicted    -0.2832993E-05 (  -2.75%)
   displ. norm   :     0.0093808 α      lambda       -0.1345660E-05
   maximum displ.:     0.0042187 α      in ANC's #5, #2, #6, ...

........................................................................
.............................. CYCLE    8 ..............................
........................................................................

 iter      E             dE          RMSdq      gap      omega  full diag
   1    -27.4390906 -0.274391E+02  0.533E-03    4.97       0.0  T
   2    -27.4390906 -0.648518E-07  0.303E-03    4.97       7.4  T
   3    -27.4390906 -0.164016E-08  0.101E-03    4.97      22.1  T
   4    -27.4390906 -0.416588E-09  0.122E-04    4.97     182.8  T
   5    -27.4390906 -0.590532E-10  0.716E-05    4.97     312.2  T
     SCC iter.                  ...        0 min,  0.002 sec
     gradient                   ...        0 min,  0.005 sec
 * total energy  :   -27.1224966 Eh     change       -0.1383480E-05 Eh
   gradient norm :     0.0003379 Eh/α   predicted    -0.6734128E-06 ( -51.32%)
   displ. norm   :     0.0165305 α      lambda       -0.1009916E-05
   maximum displ.:     0.0096176 α      in ANC's #3, #2, #6, ...

........................................................................
.............................. CYCLE    9 ..............................
........................................................................

 iter      E             dE          RMSdq      gap      omega  full diag
   1    -27.4390256 -0.274390E+02  0.799E-03    4.96       0.0  T
   2    -27.4390256 -0.420436E-07  0.462E-03    4.96       4.8  T
   3    -27.4390256 -0.292112E-08  0.695E-04    4.96      32.2  T
   4    -27.4390256 -0.604636E-09  0.173E-04    4.96     129.1  T
     SCC iter.                  ...        0 min,  0.002 sec
     gradient                   ...        0 min,  0.005 sec
 * total energy  :   -27.1224976 Eh     change       -0.1064202E-05 Eh
   gradient norm :     0.0002493 Eh/α   predicted    -0.5074236E-06 ( -52.32%)
   displ. norm   :     0.0249523 α      lambda       -0.8439695E-06
   maximum displ.:     0.0153726 α      in ANC's #3, #2, #6, ...

........................................................................
.............................. CYCLE   10 ..............................
........................................................................

 iter      E             dE          RMSdq      gap      omega  full diag
   1    -27.4389919 -0.274390E+02  0.123E-02    4.96       0.0  T
   2    -27.4389919 -0.176763E-07  0.721E-03    4.96       3.1  T
   3    -27.4389919 -0.675797E-08  0.473E-04    4.96      47.3  T
   4    -27.4389919 -0.305558E-09  0.254E-04    4.96      88.2  T
     SCC iter.                  ...        0 min,  0.002 sec
     gradient                   ...        0 min,  0.005 sec
 * total energy  :   -27.1224986 Eh     change       -0.9447877E-06 Eh
   gradient norm :     0.0004119 Eh/α   predicted    -0.4259330E-06 ( -54.92%)
   displ. norm   :     0.0205769 α      lambda       -0.5631965E-06
   maximum displ.:     0.0135251 α      in ANC's #3, #2, #6, ...

........................................................................
.............................. CYCLE   11 ..............................
........................................................................

 iter      E             dE          RMSdq      gap      omega  full diag
   1    -27.4390247 -0.274390E+02  0.999E-03    4.96       0.0  T
   2    -27.4390247 -0.766711E-08  0.589E-03    4.96       3.8  T
   3    -27.4390247 -0.477709E-08  0.370E-04    4.96      60.4  T
   4    -27.4390247 -0.106958E-09  0.198E-04    4.96     112.9  T
     SCC iter.                  ...        0 min,  0.002 sec
     gradient                   ...        0 min,  0.005 sec
 * total energy  :   -27.1224992 Eh     change       -0.6407008E-06 Eh
   gradient norm :     0.0002143 Eh/α   predicted    -0.2848133E-06 ( -55.55%)
   displ. norm   :     0.0160223 α      lambda       -0.3129506E-06
   maximum displ.:     0.0107929 α      in ANC's #3, #2, #5, ...

........................................................................
.............................. CYCLE   12 ..............................
........................................................................

 iter      E             dE          RMSdq      gap      omega  full diag
   1    -27.4390366 -0.274390E+02  0.745E-03    4.96       0.0  T
   2    -27.4390366 -0.515318E-08  0.440E-03    4.96       5.1  T
   3    -27.4390367 -0.252651E-08  0.273E-04    4.96      81.9  T
   4    -27.4390367 -0.825651E-10  0.153E-04    4.96     146.0  T
     SCC iter.                  ...        0 min,  0.002 sec
     gradient                   ...        0 min,  0.005 sec
 * total energy  :   -27.1224996 Eh     change       -0.3564752E-06 Eh
   gradient norm :     0.0000553 Eh/α   predicted    -0.1577169E-06 ( -55.76%)
   displ. norm   :     0.0146794 α      lambda       -0.2205337E-06
   maximum displ.:     0.0094089 α      in ANC's #3, #1, #5, ...

........................................................................
.............................. CYCLE   13 ..............................
........................................................................

 iter      E             dE          RMSdq      gap      omega  full diag
   1    -27.4390567 -0.274391E+02  0.585E-03    4.96       0.0  T
   2    -27.4390567 -0.280909E-08  0.345E-03    4.96       6.5  T
   3    -27.4390567 -0.153050E-08  0.219E-04    4.96     102.2  T
   4    -27.4390567 -0.723155E-10  0.130E-04    4.96     172.4  T
     SCC iter.                  ...        0 min,  0.002 sec
     gradient                   ...        0 min,  0.005 sec
 * total energy  :   -27.1224999 Eh     change       -0.2658123E-06 Eh
   gradient norm :     0.0001346 Eh/α   predicted    -0.1112141E-06 ( -58.16%)
   displ. norm   :     0.0178173 α      lambda       -0.2259541E-06
   maximum displ.:     0.0105551 α      in ANC's #3, #1, #5, ...

........................................................................
.............................. CYCLE   14 ..............................
........................................................................

 iter      E             dE          RMSdq      gap      omega  full diag
   1    -27.4390546 -0.274391E+02  0.629E-03    4.96       0.0  T
   2    -27.4390546 -0.285429E-08  0.370E-03    4.96       6.0  T
   3    -27.4390546 -0.167337E-08  0.224E-04    4.96      99.8  T
   4    -27.4390546 -0.609965E-10  0.130E-04    4.96     172.5  T
     SCC iter.                  ...        0 min,  0.002 sec
     gradient                   ...        0 min,  0.005 sec
 * total energy  :   -27.1225001 Eh     change       -0.2617314E-06 Eh
   gradient norm :     0.0001567 Eh/α   predicted    -0.1135996E-06 ( -56.60%)
   displ. norm   :     0.0127786 α      lambda       -0.1440779E-06
   maximum displ.:     0.0081866 α      in ANC's #1, #5, #3, ...

........................................................................
.............................. CYCLE   15 ..............................
........................................................................

 iter      E             dE          RMSdq      gap      omega  full diag
   1    -27.4390584 -0.274391E+02  0.378E-03    4.96       0.0  T
   2    -27.4390584 -0.204352E-08  0.222E-03    4.96      10.1  T
   3    -27.4390584 -0.386976E-09  0.172E-04    4.96     129.7  T
   4    -27.4390584 -0.194611E-09  0.843E-05    4.96     265.1  T
     SCC iter.                  ...        0 min,  0.002 sec
     gradient                   ...        0 min,  0.005 sec
 * total energy  :   -27.1225003 Eh     change       -0.1696503E-06 Eh
   gradient norm :     0.0001139 Eh/α   predicted    -0.7509776E-07 ( -55.73%)
   displ. norm   :     0.0127786 α      lambda        0.0000000E+00
   maximum displ.:     0.0081866 α      in ANC's #1, #5, #3, ...

........................................................................
.............................. CYCLE   16 ..............................
........................................................................

 iter      E             dE          RMSdq      gap      omega  full diag
   1    -27.4390590 -0.274391E+02  0.379E-03    4.96       0.0  T
   2    -27.4390590 -0.199956E-08  0.222E-03    4.96      10.1  T
   3    -27.4390590 -0.420158E-09  0.168E-04    4.96     133.1  T
   4    -27.4390590 -0.167933E-09  0.846E-05    4.96     264.2  T
     SCC iter.                  ...        0 min,  0.002 sec
     gradient                   ...        0 min,  0.005 sec
 * total energy  :   -27.1225003 Eh     change       -0.4560795E-07 Eh
   gradient norm :     0.0001166 Eh/α   predicted     0.8818079E-09 (-101.93%)
   displ. norm   :     0.0030194 α      lambda       -0.6965200E-07
   maximum displ.:     0.0017282 α      in ANC's #3, #2, #1, ...

   *** GEOMETRY OPTIMIZATION CONVERGED AFTER 16 ITERATIONS ***

------------------------------------------------------------------------
 total energy gain   :        -0.0015004 Eh       -0.9415 kcal/mol
 total RMSD          :         0.0782139 a0        0.0414 Å
 total power (kW/mol):        -0.2462027 (step)  -21.6486 (real)
------------------------------------------------------------------------

 ANCopt (total)                0 d,  0 h,  0 min,  0.182 sec
 optimizer setup                ...        0 min,  0.000 sec (  0.269%)
 model hessian                  ...        0 min,  0.010 sec (  5.542%)
 ANC generation                 ...        0 min,  0.001 sec (  0.494%)
 coordinate transformation      ...        0 min,  0.000 sec (  0.054%)
 single point calculation       ...        0 min,  0.150 sec ( 82.458%)
 optimization log               ...        0 min,  0.019 sec ( 10.359%)
 hessian update                 ...        0 min,  0.000 sec (  0.057%)
 rational function              ...        0 min,  0.001 sec (  0.355%)

================
 final structure:
================
$coord
       -4.64410323558615       -2.53523622030768       -0.57164882178832      C
       -4.82257079823393        0.24507107382912        0.15696355222274      C
       -2.45387059067578        1.12934148249041        1.56561217148335      C
       -0.18310769626718        1.12448382566800       -0.15299549839893      C
       -0.09463279999193        2.10798868654603       -2.22441933533585      O
        1.75585088425373       -0.08890430898346        0.86822133536898      O
        4.06793545620906       -0.21239866068440       -0.55322654756002      C
        6.01914393298913       -1.58814840464238        1.03090845812318      C
       -3.04903032872310       -2.84449633769939       -1.83318104615299      H
       -4.38980062941611       -3.70534995902378        1.09816080865511      H
       -6.35495596226387       -3.13358575247334       -1.53685479118363      H
       -6.46566436176141        0.54180930527412        1.36381473896030      H
       -5.04490479415158        1.39442874665258       -1.54160766855182      H
       -2.05460589207515       -0.07807421850962        3.18426977516517      H
       -2.72567775399058        3.06846138202682        2.21423319250954      H
        3.68771579876650       -1.19860731394726       -2.33231499727425      H
        4.66123042025553        1.71805336513364       -1.00403042203234      H
        5.36180253233121       -3.48312544530657        1.46432735073160      H
        7.78121044860150       -1.70276119538535       -0.01089616542218      H
        6.33442058010061       -0.57849216792161        2.78938722851674      H
$end
 
 Bond Distances (Angstroems)
 ---------------------------
C1-C2=1.5239         C1-H9=1.0885         C1-H10=1.0873        C1-H11=1.0866        C2-C1=1.5239         C2-C3=1.5316         
C2-H12=1.0902        C2-H13=1.0916        C3-C2=1.5316         C3-C4=1.5070         C3-H14=1.0893        C3-H15=1.0915        
C4-C3=1.5070         C4-O5=1.2143         C4-O6=1.3256         O5-C4=1.2143         O6-C4=1.3256         O6-C7=1.4377         
C7-O6=1.4377         C7-C8=1.5162         C7-H16=1.0951        C7-H17=1.0950        C8-C7=1.5162         C8-H18=1.0859        
C8-H19=1.0849        C8-H20=1.0859        H9-C1=1.0885         H10-C1=1.0873        H11-C1=1.0866        H12-C2=1.0902        
H13-C2=1.0916        H14-C3=1.0893        H15-C3=1.0915        H16-C7=1.0951        H17-C7=1.0950        H18-C8=1.0859        
H19-C8=1.0849        H20-C8=1.0859        
 C  H  Rav=1.0893 sigma=0.0033  Rmin=1.0849  Rmax=1.0951    12
 C  C  Rav=1.5197 sigma=0.0091  Rmin=1.5070  Rmax=1.5316     4
 O  C  Rav=1.3259 sigma=0.0912  Rmin=1.2143  Rmax=1.4377     3
 
 selected bond angles (degree)
 --------------------
H9-C1-C2=110.39                H10-C1-C2=110.60               H10-C1-H9=108.47               H11-C1-C2=110.40               
H11-C1-H9=108.30               H11-C1-H10=108.61              C3-C2-C1=111.56                H12-C2-C1=109.68               
H12-C2-C3=108.88               H13-C2-C1=109.65               H13-C2-C3=108.59               H13-C2-H12=108.43              
C4-C3-C2=111.00                H14-C3-C2=111.24               H14-C3-C4=108.60               H15-C3-C2=109.42               
H15-C3-C4=107.24               H15-C3-H14=109.25              O5-C4-C3=125.08                O6-C4-C3=111.84                
O6-C4-O5=123.08                C7-O6-C4=117.87                C8-C7-O6=108.19                H16-C7-O6=108.37               
H16-C7-C8=111.82               H17-C7-O6=108.40               H17-C7-C8=111.91               H17-C7-H16=108.06              
H18-C8-C7=110.00               H19-C8-C7=109.34               H19-C8-H18=109.33              H20-C8-C7=110.01               
H20-C8-H18=108.82              H20-C8-H19=109.32              
 
 selected dihedral angles (degree)
 ---------------------------------
C3-C2-C1-H9=298.66            C3-C2-C1-H10= 58.72           C3-C2-C1-H11=178.95           H12-C2-C1-H9=177.95           
H12-C2-C1-H10=298.00          H12-C2-C1-H11= 58.24          H13-C2-C1-H9= 58.99           H13-C2-C1-H10=179.04          
H13-C2-C1-H11=299.28          C4-C3-C2-C1= 67.28            C4-C3-C2-H12=188.46           C4-C3-C2-H13=306.33           
H14-C3-C2-C1=306.24           H14-C3-C2-H12= 67.42          H14-C3-C2-H13=185.29          H15-C3-C2-C1=185.44           
H15-C3-C2-H12=306.62          H15-C3-C2-H13= 64.49          O5-C4-C3-C2= 50.81            O5-C4-C3-H14=173.39           
O5-C4-C3-H15=291.34           O6-C4-C3-C2=230.55            O6-C4-C3-H14=353.14           O6-C4-C3-H15=111.08           
C7-O6-C4-C3=180.84            C7-O6-C4-O5=  0.59            C8-C7-O6-C4=177.77            H16-C7-O6-C4=299.19           
H17-C7-O6-C4= 56.23           H18-C8-C7-O6= 59.89           H18-C8-C7-H16=300.63          H18-C8-C7-H17=179.24          
H19-C8-C7-O6=179.96           H19-C8-C7-H16= 60.70          H19-C8-C7-H17=299.31          H20-C8-C7-O6=300.03           
H20-C8-C7-H16=180.77          H20-C8-C7-H17= 59.38          
           -------------------------------------------------
          |                Final Singlepoint                |
           -------------------------------------------------

          ...................................................
          :                      SETUP                      :
          :.................................................:
          :  # basis functions                  44          :
          :  # atomic orbitals                  44          :
          :  # shells                           28          :
          :  # electrons                        48          :
          :  max. iterations                   250          :
          :  Hamiltonian                  GFN2-xTB          :
          :  restarted?                      false          :
          :  GBSA solvation                   true          :
          :  PC potential                    false          :
          :  electronic temp.          300.0000000     K    :
          :  accuracy                    1.0000000          :
          :  -> integral cutoff          0.2500000E+02      :
          :  -> integral neglect         0.1000000E-07      :
          :  -> SCF convergence          0.1000000E-05 Eh   :
          :  -> wf. convergence          0.1000000E-03 e    :
          :  Broyden damping             0.4000000          :
          :  net charge                          0          :
          :  unpaired electrons                  0          :
          ...................................................

 iter      E             dE          RMSdq      gap      omega  full diag
   1    -27.4390590 -0.274391E+02  0.436E-05    4.96       0.0  T
   2    -27.4390590 -0.173017E-11  0.276E-05    4.96     809.5  T
   3    -27.4390590 -0.294875E-12  0.868E-06    4.96    2575.5  T

   *** convergence criteria satisfied after 3 iterations ***

         #    Occupation            Energy/Eh            Energy/eV
      -------------------------------------------------------------
         1        2.0000           -0.7500054             -20.4087
       ...           ...                  ...                  ...
        18        2.0000           -0.4734357             -12.8828
        19        2.0000           -0.4640888             -12.6285
        20        2.0000           -0.4488247             -12.2131
        21        2.0000           -0.4463961             -12.1471
        22        2.0000           -0.4389228             -11.9437
        23        2.0000           -0.4367232             -11.8838
        24        2.0000           -0.4202126             -11.4346 (HOMO)
        25                         -0.2378043              -6.4710 (LUMO)
        26                         -0.0049658              -0.1351
        27                          0.0965178               2.6264
        28                          0.1053998               2.8681
        29                          0.1262412               3.4352
       ...                                ...                  ...
        44                          0.6136825              16.6992
      -------------------------------------------------------------
                  HL-Gap            0.1824083 Eh            4.9636 eV
             Fermi-level           -0.3290085 Eh           -8.9528 eV

 SCC (total)                   0 d,  0 h,  0 min,  0.010 sec
 SCC setup                      ...        0 min,  0.001 sec ( 13.058%)
 Dispersion                     ...        0 min,  0.000 sec (  0.858%)
 classical contributions        ...        0 min,  0.000 sec (  0.214%)
 integral evaluation            ...        0 min,  0.002 sec ( 17.486%)
 iterations                     ...        0 min,  0.002 sec ( 14.746%)
 molecular gradient             ...        0 min,  0.005 sec ( 52.319%)
 printout                       ...        0 min,  0.000 sec (  1.168%)

         :::::::::::::::::::::::::::::::::::::::::::::::::::::
         ::                     SUMMARY                     ::
         :::::::::::::::::::::::::::::::::::::::::::::::::::::
         :: total energy             -27.122500327314 Eh    ::
         :: total w/o Gsasa/hb       -27.122442173919 Eh    ::
         :: gradient norm              0.000117018979 Eh/a0 ::
         :: HOMO-LUMO gap              4.963582356585 eV    ::
         ::.................................................::
         :: SCC energy               -27.439023052911 Eh    ::
         :: -> isotropic ES            0.059346789600 Eh    ::
         :: -> anisotropic ES          0.000760924220 Eh    ::
         :: -> anisotropic XC          0.008123916217 Eh    ::
         :: -> dispersion             -0.011499153882 Eh    ::
         :: -> Gsolv                  -0.009241801541 Eh    ::
         ::    -> Gelec               -0.009183648145 Eh    ::
         ::    -> Gsasa                0.001112988045 Eh    ::
         ::    -> Ghb                 -0.002251901139 Eh    ::
         ::    -> Gshift               0.001080759698 Eh    ::
         :: repulsion energy           0.316522725597 Eh    ::
         :: add. restraining           0.000000000000 Eh    ::
         :: total charge              -0.000000000000 e     ::
         :::::::::::::::::::::::::::::::::::::::::::::::::::::

           ------------------------------------------------- 
          |                Numerical Hessian                |
           ------------------------------------------------- 
step length          :   0.00500
SCC accuracy         :   0.30000
Hessian scale factor :   1.00000
frozen atoms in %    :   0.00000    0
RMS gradient         :   0.00012
estimated CPU  time      0.02 min
estimated wall time      0.02 min

writing file <hessian>.

 projected vibrational frequencies (cm⁻¹)
eigval :       -0.00    -0.00    -0.00    -0.00     0.00     0.00
eigval :       -4.72    19.32    79.99   128.15   161.51   195.34
eigval :      228.62   265.65   342.54   382.01   422.37   588.03
eigval :      685.61   817.01   820.47   882.67   911.69   921.24
eigval :      969.16  1061.34  1070.73  1082.44  1117.27  1123.84
eigval :     1137.10  1165.69  1199.37  1233.52  1246.71  1307.13
eigval :     1323.30  1335.56  1395.43  1411.42  1429.29  1462.68
eigval :     1466.30  1475.56  1480.91  1495.52  1502.19  1695.17
eigval :     2925.07  2947.30  2978.38  2983.54  2997.15  3012.37
eigval :     3021.73  3035.43  3045.93  3055.96  3058.72  3064.87
           -------------------------------------------------
          |                Property Printout                |
           -------------------------------------------------

    * Orbital Energies and Occupations

         #    Occupation            Energy/Eh            Energy/eV
      -------------------------------------------------------------
         1        2.0000           -0.7500054             -20.4087
       ...           ...                  ...                  ...
        12        2.0000           -0.5290388             -14.3959
        13        2.0000           -0.5109838             -13.9046
        14        2.0000           -0.5016026             -13.6493
        15        2.0000           -0.4914871             -13.3740
        16        2.0000           -0.4834660             -13.1558
        17        2.0000           -0.4745810             -12.9140
        18        2.0000           -0.4734357             -12.8828
        19        2.0000           -0.4640888             -12.6285
        20        2.0000           -0.4488247             -12.2131
        21        2.0000           -0.4463961             -12.1471
        22        2.0000           -0.4389228             -11.9437
        23        2.0000           -0.4367233             -11.8838
        24        2.0000           -0.4202126             -11.4346 (HOMO)
        25                         -0.2378044              -6.4710 (LUMO)
        26                         -0.0049658              -0.1351
        27                          0.0965178               2.6264
        28                          0.1053998               2.8681
        29                          0.1262412               3.4352
        30                          0.1301064               3.5404
        31                          0.1491899               4.0597
        32                          0.1523468               4.1456
        33                          0.1538854               4.1874
        34                          0.1604745               4.3667
        35                          0.1810432               4.9264
       ...                                ...                  ...
        44                          0.6136824              16.6991
      -------------------------------------------------------------
                  HL-Gap            0.1824082 Eh            4.9636 eV
             Fermi-level           -0.3290085 Eh           -8.9528 eV

     #   Z          covCN         q      C6AA      α(0)
     1   6 C        3.752    -0.112    22.711     6.796
     2   6 C        3.802    -0.057    21.598     6.617
     3   6 C        3.804    -0.101    22.433     6.743
     4   6 C        2.715     0.365    20.802     7.466
     5   8 O        0.856    -0.491    23.595     6.512
     6   8 O        1.704    -0.270    18.480     5.804
     7   6 C        3.696     0.079    19.431     6.306
     8   6 C        3.752    -0.134    23.138     6.860
     9   1 H        0.925     0.027     2.626     2.534
    10   1 H        0.925     0.049     2.329     2.387
    11   1 H        0.925     0.049     2.336     2.390
    12   1 H        0.925     0.058     2.223     2.331
    13   1 H        0.924     0.047     2.358     2.401
    14   1 H        0.925     0.080     1.977     2.199
    15   1 H        0.924     0.087     1.905     2.158
    16   1 H        0.924     0.055     2.260     2.351
    17   1 H        0.924     0.055     2.262     2.352
    18   1 H        0.925     0.071     2.071     2.250
    19   1 H        0.925     0.073     2.052     2.240
    20   1 H        0.925     0.070     2.081     2.256

 Mol. C6AA /au·bohr⁶  :       2998.096667
 Mol. C8AA /au·bohr⁸  :      63842.355510
 Mol. α(0) /au        :         80.953031


Wiberg/Mayer (AO) data.
largest (>0.10) Wiberg bond orders for each atom

 ---------------------------------------------------------------------------
     #   Z sym  total        # sym  WBO       # sym  WBO       # sym  WBO
 ---------------------------------------------------------------------------
     1   6 C    3.996 --     2 C    1.021     9 H    0.988    10 H    0.986
                            11 H    0.986
     2   6 C    3.992 --     1 C    1.021     3 C    0.990    13 H    0.977
                            12 H    0.976
     3   6 C    3.988 --     2 C    0.990     4 C    0.979    14 H    0.971
                            15 H    0.945
     4   6 C    3.902 --     5 O    1.691     6 O    1.169     3 C    0.979
     5   8 O    1.969 --     4 C    1.691     6 O    0.171
     6   8 O    2.318 --     4 C    1.169     7 C    0.919     5 O    0.171
     7   6 C    3.914 --     8 C    1.020    17 H    0.969    16 H    0.969
                             6 O    0.919
     8   6 C    3.985 --     7 C    1.020    20 H    0.984    18 H    0.983
                            19 H    0.980
     9   1 H    0.999 --     1 C    0.988
    10   1 H    0.998 --     1 C    0.986
    11   1 H    0.998 --     1 C    0.986
    12   1 H    0.996 --     2 C    0.976
    13   1 H    0.998 --     2 C    0.977
    14   1 H    0.994 --     3 C    0.971
    15   1 H    0.992 --     3 C    0.945
    16   1 H    0.997 --     7 C    0.969
    17   1 H    0.997 --     7 C    0.969
    18   1 H    0.995 --     8 C    0.983
    19   1 H    0.994 --     8 C    0.980
    20   1 H    0.995 --     8 C    0.984
 ---------------------------------------------------------------------------

Topologies differ in total number of bonds
Writing topology from bond orders to xtbtopo.mol

molecular dipole:
                 x           y           z       tot (Debye)
 q only:        0.296      -0.688       1.019
   full:        0.304      -0.623       0.986       3.064
molecular quadrupole (traceless):
                xx          xy          yy          xz          yz          zz
 q only:       10.035      -1.957      -4.279      -1.674       3.630      -5.756
  q+dip:        7.876      -0.928      -2.841      -2.203       4.543      -5.034
   full:        8.279      -0.899      -2.747      -2.037       4.939      -5.531

           -------------------------------------------------
          |                Geometry Summary                 |
           -------------------------------------------------

      molecular mass/u    :      116.1585142
   center of mass at/Å    :        0.0003726       0.0007317      -0.0004065
  moments of inertia/u·Å² :        0.1271988E+03   0.4966710E+03   0.5344025E+03
rotational constants/cm⁻¹ :        0.1325298E+00   0.3394124E-01   0.3154482E-01

 * 18 selected distances

     #   Z          #   Z                                           value/Å
     1   6 C        2   6 C                                       1.5238868
     2   6 C        3   6 C                                       1.5315971 (max)
     4   6 C        5   8 O                                       1.2143328
     4   6 C        6   8 O                                       1.3255605
     6   8 O        7   6 C                                       1.4377173
     7   6 C        8   6 C                                       1.5162000
     1   6 C        9   1 H                                       1.0885323
     1   6 C       10   1 H                                       1.0873402
     1   6 C       11   1 H                                       1.0866397
     2   6 C       12   1 H                                       1.0901950
     2   6 C       13   1 H                                       1.0916453
     3   6 C       14   1 H                                       1.0892979
     3   6 C       15   1 H                                       1.0915395
     7   6 C       16   1 H                                       1.0950684
     7   6 C       17   1 H                                       1.0950093
     8   6 C       18   1 H                                       1.0858954
     8   6 C       19   1 H                                       1.0849258 (min)
     8   6 C       20   1 H                                       1.0859167

 * 3 distinct bonds (by element types)

   Z      Z             #   av. dist./Å        max./Å        min./Å
   1 H    6 C          12     1.0893338     1.0950684     1.0849258
   6 C    6 C           3     1.5238946     1.5315971     1.5162000
   6 C    8 O           3     1.3258702     1.4377173     1.2143328

           -------------------------------------------------
          |               Frequency Printout                |
           -------------------------------------------------
 projected vibrational frequencies (cm⁻¹)
eigval :       -0.00    -0.00    -0.00    -0.00     0.00     0.00
eigval :       -4.72    19.32    79.99   128.15   161.51   195.34
eigval :      228.62   265.65   342.54   382.01   422.37   588.03
eigval :      685.61   817.01   820.47   882.67   911.69   921.24
eigval :      969.16  1061.34  1070.73  1082.44  1117.27  1123.84
eigval :     1137.10  1165.69  1199.37  1233.52  1246.71  1307.13
eigval :     1323.30  1335.56  1395.43  1411.42  1429.29  1462.68
eigval :     1466.30  1475.56  1480.91  1495.52  1502.19  1695.17
eigval :     2925.07  2947.30  2978.38  2983.54  2997.15  3012.37
eigval :     3021.73  3035.43  3045.93  3055.96  3058.72  3064.87
 reduced masses (amu)
   1: 10.89   2: 10.73   3: 11.09   4: 10.47   5: 11.70   6: 12.02   7:  8.63   8: 11.37
   9:  8.52  10:  7.79  11:  7.54  12:  6.03  13:  6.43  14:  6.63  15: 10.73  16:  7.79
  17: 10.33  18: 10.88  19: 10.20  20:  3.84  21:  2.94  22:  7.94  23:  7.99  24:  7.53
  25:  9.02  26:  6.68  27:  8.33  28:  4.41  29:  8.33  30:  8.56  31:  5.10  32:  8.91
  33:  7.23  34:  2.25  35:  3.44  36:  4.45  37:  4.44  38:  4.68  39:  3.36  40:  3.17
  41:  2.05  42:  1.52  43:  1.88  44:  1.94  45:  1.57  46:  1.54  47:  1.56  48: 13.33
  49:  1.98  50:  1.46  51:  1.75  52:  1.92  53:  1.53  54:  1.75  55:  1.87  56:  1.79
  57:  1.49  58:  1.96  59:  1.38  60:  1.84
 IR intensities (km·mol⁻¹)
   1:  0.41   2:  1.15   3:  0.08   4:  0.80   5:  0.14   6:  1.08   7:  0.19   8:  3.78
   9:  0.72  10:  2.09  11:  4.85  12:  4.75  13:  1.88  14:  4.92  15: 13.23  16:  2.56
  17:  2.07  18: 15.94  19: 12.40  20: 17.99  21:  3.65  22: 19.69  23:  6.09  24:  0.39
  25:  3.85  26: 20.78  27: 78.21  28:  3.80  29: 14.33  30: 52.52  31: 16.11  32:317.33
  33:166.38  34:  2.57  35: 14.66  36: 69.35  37: 20.44  38: 12.65  39:  7.53  40:  1.79
  41:  6.30  42:  4.97  43:  0.57  44:  1.17  45:  3.97  46:  2.92  47:  0.54  48:616.40
  49: 41.33  50: 38.83  51:  9.04  52: 31.47  53: 41.70  54: 25.61  55: 95.69  56: 64.88
  57: 40.46  58: 30.19  59: 19.00  60: 23.67
 Raman intensities (Ä⁴*amu⁻¹)
   1:  0.00   2:  0.00   3:  0.00   4:  0.00   5:  0.00   6:  0.00   7:  0.00   8:  0.00
   9:  0.00  10:  0.00  11:  0.00  12:  0.00  13:  0.00  14:  0.00  15:  0.00  16:  0.00
  17:  0.00  18:  0.00  19:  0.00  20:  0.00  21:  0.00  22:  0.00  23:  0.00  24:  0.00
  25:  0.00  26:  0.00  27:  0.00  28:  0.00  29:  0.00  30:  0.00  31:  0.00  32:  0.00
  33:  0.00  34:  0.00  35:  0.00  36:  0.00  37:  0.00  38:  0.00  39:  0.00  40:  0.00
  41:  0.00  42:  0.00  43:  0.00  44:  0.00  45:  0.00  46:  0.00  47:  0.00  48:  0.00
  49:  0.00  50:  0.00  51:  0.00  52:  0.00  53:  0.00  54:  0.00  55:  0.00  56:  0.00
  57:  0.00  58:  0.00  59:  0.00  60:  0.00
 output can be read by thermo (or use thermo option).
 writing <g98.out> molden fake output.
 recommended (thermochemical) frequency scaling factor: 1.0
           -------------------------------------------------
          |             Thermodynamic Functions             |
           -------------------------------------------------

Molecule has no symmetry elements
It seems to be the C1 point group
c1  symmetry found (for desy threshold:  0.10E+00) used in thermo
 inverting freq            1   4.72395485847511     

          ...................................................
          :                      SETUP                      :
          :.................................................:
          :  # frequencies                          54      :
          :  # imaginary freq.                       0      :
          :  linear?                             false      :
          :  only rotor calc.                    false      :
          :  symmetry                               c1      :
          :  rotational number                       1      :
          :  scaling factor                  1.0000000      :
          :  rotor cutoff                    0.0000000 cm⁻¹ :
          :  imag. cutoff                 -100.0000000 cm⁻¹ :
          :.................................................:

    mode    ω/cm⁻¹     T·S(HO)/kcal·mol⁻¹    T·S(FR)/kcal·mol⁻¹   T·S(vib)
   ------------------------------------------------------------------------
       1      4.72    -2.83277 (100.00%)    -1.75277 (  0.00%)    -2.83277
       2     19.32    -1.99839 (100.00%)    -1.33754 (  0.00%)    -1.99839
       3     79.99    -1.16014 (100.00%)    -0.91719 (  0.00%)    -1.16014
       4    128.15    -0.88660 (100.00%)    -0.77764 (  0.00%)    -0.88660
       5    161.51    -0.75494 (100.00%)    -0.70912 (  0.00%)    -0.75494
       6    195.34    -0.64893 (100.00%)    -0.65279 (  0.00%)    -0.64893
       7    228.62    -0.56343 (100.00%)    -0.60619 (  0.00%)    -0.56343
       8    265.65    -0.48430 (100.00%)    -0.56173 (  0.00%)    -0.48430
   ------------------------------------------------------------------------

   temp. (K)  partition function   enthalpy   heat capacity  entropy
                                   cal/mol     cal/K/mol   cal/K/mol   J/K/mol
 298.15  VIB  0.454E+05             4633.159     28.424     36.850
         ROT  0.444E+06              888.752      2.981     28.822
         INT  0.202E+11             5521.912     31.405     65.672
         TR   0.121E+28             1481.254      4.968     40.146
         TOT                        7003.1658    36.3727   105.8183   442.7436

       T/K    H(0)-H(T)+PV         H(T)/Eh          T*S/Eh         G(T)/Eh
   ------------------------------------------------------------------------
    298.15    0.111603E-01    0.182412E+00    0.502777E-01    0.132135E+00
   ------------------------------------------------------------------------

         :::::::::::::::::::::::::::::::::::::::::::::::::::::
         ::                  THERMODYNAMIC                  ::
         :::::::::::::::::::::::::::::::::::::::::::::::::::::
         :: total free energy         -26.990365631419 Eh   ::
         ::.................................................::
         :: total energy              -27.122500327261 Eh   ::
         :: zero point energy           0.171252111436 Eh   ::
         :: G(RRHO) w/o ZPVE           -0.039117415595 Eh   ::
         :: G(RRHO) contrib.            0.132134695842 Eh   ::
         :::::::::::::::::::::::::::::::::::::::::::::::::::::

optimized geometry written to: xtbopt.coord


           -------------------------------------------------
          | TOTAL ENERGY              -27.122500327261 Eh   |
          | TOTAL ENTHALPY            -26.940087960818 Eh   |
          | TOTAL FREE ENERGY         -26.990365631419 Eh   |
          | GRADIENT NORM               0.000117017002 Eh/α |
          | HOMO-LUMO GAP               4.963579773197 eV   |
           -------------------------------------------------

------------------------------------------------------------------------
 * finished run on 2025/04/11 at 17:46:10.464     
------------------------------------------------------------------------
 total:
 * wall-time:     0 d,  0 h,  0 min,  1.485 sec
 *  cpu-time:     0 d,  0 h,  0 min,  1.369 sec
 * ratio c/w:     0.922 speedup
 SCF:
 * wall-time:     0 d,  0 h,  0 min,  0.028 sec
 *  cpu-time:     0 d,  0 h,  0 min,  0.013 sec
 * ratio c/w:     0.473 speedup
 ANC optimizer:
 * wall-time:     0 d,  0 h,  0 min,  0.204 sec
 *  cpu-time:     0 d,  0 h,  0 min,  0.175 sec
 * ratio c/w:     0.859 speedup
 analytical hessian:
 * wall-time:     0 d,  0 h,  0 min,  1.173 sec
 *  cpu-time:     0 d,  0 h,  0 min,  1.158 sec
 * ratio c/w:     0.987 speedup

