21
 energy: -635.154885542404 gnorm: 0.000410612386 xtb: 6.7.1 (edcfbbe)
C            1.45504803660813       -0.45862193423575       -1.42269424907217
C            1.51742461031958       -0.17674452559861        0.07332040674825
C            1.96986994961834        1.25040198502154        0.36790507836929
S           -0.00610690932051       -0.68120253310533        1.01723978293392
C           -1.51838157017451        0.00836571553808        0.17762074010090
C           -1.44221842150907        1.49710491994913       -0.13723591033878
C           -1.96924563960388       -0.80857512738422       -1.02966442265757
H            0.77165490325052        0.22710763246498       -1.93066317951505
H            2.45211579825659       -0.31141521266172       -1.85488152789864
H            1.14048733954169       -1.48505472189797       -1.62903002217299
H            2.24885918034171       -0.86308173832917        0.51964623793235
H            2.96813005709989        1.40731712857799       -0.05960036540784
H            2.02709123478878        1.43731210070491        1.44362847963710
H            1.29694399441283        1.98740899221041       -0.07635288261448
H           -2.25659146532942       -0.13384228206871        0.97767354612934
H           -1.12811480038170        2.08002454861941        0.73260515992451
H           -0.75204800544416        1.69641265105610       -0.96139024781404
H           -2.43464534888394        1.84717257277108       -0.44547862765338
H           -2.03164492352687       -1.87369876032598       -0.79097686031404
H           -1.29269834056129       -0.68238144617065       -1.87814062914581
H           -2.96490574886025       -0.46973945393196       -1.34216411682503
21
 energy: -635.154886971041 gnorm: 0.000215933263 xtb: 6.7.1 (edcfbbe)
C            1.45491189291484       -0.45750192983622       -1.42273521267802
C            1.51763185647177       -0.17684514371189        0.07354386454536
C            1.97040416226651        1.25007370915658        0.36888921065428
S           -0.00611498446942       -0.68123682277852        1.01724287553895
C           -1.51860021716992        0.00819751177524        0.17780119774849
C           -1.44204589832918        1.49671457630755       -0.13825751282814
C           -1.96980982577694       -0.80937553960412       -1.02896982864738
H            0.77229547250741        0.22943227871878       -1.93026468103884
H            2.45187424973463       -0.31108808790014       -1.85534584099687
H            1.13885467570026       -1.48328960168540       -1.63030164216410
H            2.24965895289726       -0.86342562832921        0.51899871063877
H            2.96841787400475        1.40776719884373       -0.05857388326774
H            2.02779528005297        1.43626691108669        1.44452246484484
H            1.29743147831101        1.98760898470086       -0.07473886266418
H           -2.25739943709396       -0.13313052596742        0.97771148660195
H           -1.12653493935906        2.08047517010521        0.73059857292031
H           -0.75252223866418        1.69515586658943       -0.96325336159557
H           -2.43435778893955        1.84749032566984       -0.44603658726658
H           -2.03244648735054       -1.87412745626002       -0.78956911004463
H           -1.29321510667389       -0.68406230767407       -1.87769817533802
H           -2.96520599062823       -0.47082852073847       -1.34219592409738
21
 energy: -635.154886971041 gnorm: 0.000215933263 xtb: 6.7.1 (edcfbbe)
C            1.45491189291484       -0.45750192983622       -1.42273521267802
C            1.51763185647177       -0.17684514371189        0.07354386454536
C            1.97040416226651        1.25007370915658        0.36888921065428
S           -0.00611498446942       -0.68123682277852        1.01724287553895
C           -1.51860021716992        0.00819751177524        0.17780119774849
C           -1.44204589832918        1.49671457630755       -0.13825751282814
C           -1.96980982577694       -0.80937553960412       -1.02896982864738
H            0.77229547250741        0.22943227871878       -1.93026468103884
H            2.45187424973463       -0.31108808790014       -1.85534584099687
H            1.13885467570026       -1.48328960168540       -1.63030164216410
H            2.24965895289726       -0.86342562832921        0.51899871063877
H            2.96841787400475        1.40776719884373       -0.05857388326774
H            2.02779528005297        1.43626691108669        1.44452246484484
H            1.29743147831101        1.98760898470086       -0.07473886266418
H           -2.25739943709396       -0.13313052596742        0.97771148660195
H           -1.12653493935906        2.08047517010521        0.73059857292031
H           -0.75252223866418        1.69515586658943       -0.96325336159557
H           -2.43435778893955        1.84749032566984       -0.44603658726658
H           -2.03244648735054       -1.87412745626002       -0.78956911004463
H           -1.29321510667389       -0.68406230767407       -1.87769817533802
H           -2.96520599062823       -0.47082852073847       -1.34219592409738
