      -----------------------------------------------------------      
     |                   =====================                   |     
     |                           x T B                           |     
     |                   =====================                   |     
     |                         S. Grimme                         |     
     |          Mulliken Center for Theoretical Chemistry        |     
     |                    University of Bonn                     |     
      -----------------------------------------------------------      

   * xtb version 6.7.1 (edcfbbe) compiled by 'albert@albert-system' on 2024-07-22

   xtb is free software: you can redistribute it and/or modify it under
   the terms of the GNU Lesser General Public License as published by
   the Free Software Foundation, either version 3 of the License, or
   (at your option) any later version.
   
   xtb is distributed in the hope that it will be useful,
   but WITHOUT ANY WARRANTY; without even the implied warranty of
   MERCHANTABILITY or FITNESS FOR A PARTICULAR PURPOSE.  See the
   GNU Lesser General Public License for more details.
   
   Cite this work as:
   * C. Bannwarth, E. Caldeweyher, S. Ehlert, A. Hansen, P. Pracht,
     J. Seibert, S. Spicher, S. Grimme, WIREs Comput. Mol. Sci., 2020, 11,
     e01493. DOI: 10.1002/wcms.1493
   
   for GFN2-xTB:
   * C. Bannwarth, S. Ehlert and S. Grimme., J. Chem. Theory Comput., 2019,
     15, 1652-1671. DOI: 10.1021/acs.jctc.8b01176
   for GFN1-xTB:
   * S. Grimme, C. Bannwarth, P. Shushkov, J. Chem. Theory Comput., 2017,
     13, 1989-2009. DOI: 10.1021/acs.jctc.7b00118
   for GFN0-xTB:
   * P. Pracht, E. Caldeweyher, S. Ehlert, S. Grimme, ChemRxiv, 2019, preprint.
     DOI: 10.26434/chemrxiv.8326202.v1
   for GFN-FF:
   * S. Spicher and S. Grimme, Angew. Chem. Int. Ed., 2020, 59, 15665-15673.
     DOI: 10.1002/anie.202004239
   
   for ALPB and GBSA implicit solvation:
   * S. Ehlert, M. Stahn, S. Spicher, S. Grimme, J. Chem. Theory Comput.,
     2021, 17, 4250-4261. DOI: 10.1021/acs.jctc.1c00471
   
   for ddCOSMO and CPCM-X implicit solvation:
   * M. Stahn, S. Ehlert, S. Grimme, J. Phys. Chem. A,
     2023, XX, XXXX-XXXX. DOI: 10.1021/acs.jpca.3c04382
   
   for DFT-D4:
   * E. Caldeweyher, C. Bannwarth and S. Grimme, J. Chem. Phys., 2017,
     147, 034112. DOI: 10.1063/1.4993215
   * E. Caldeweyher, S. Ehlert, A. Hansen, H. Neugebauer, S. Spicher,
     C. Bannwarth and S. Grimme, J. Chem. Phys., 2019, 150, 154122.
     DOI: 10.1063/1.5090222
   * E. Caldeweyher, J.-M. Mewes, S. Ehlert and S. Grimme, Phys. Chem. Chem. Phys.
     2020, 22, 8499-8512. DOI: 10.1039/D0CP00502A
   
   for sTDA-xTB:
   * S. Grimme and C. Bannwarth, J. Chem. Phys., 2016, 145, 054103.
     DOI: 10.1063/1.4959605
   
   in the mass-spec context:
   * V. Asgeirsson, C. Bauer and S. Grimme, Chem. Sci., 2017, 8, 4879.
     DOI: 10.1039/c7sc00601b
   * J. Koopman and S. Grimme, ACS Omega 2019, 4, 12, 15120-15133.
     DOI: 10.1021/acsomega.9b02011
   
   for metadynamics refer to:
   * S. Grimme, J. Chem. Theory Comput., 2019, 155, 2847-2862
     DOI: 10.1021/acs.jctc.9b00143
   
   for SPH calculations refer to:
   * S. Spicher and S. Grimme, J. Chem. Theory Comput., 2021, 17, 1701-1714
     DOI: 10.1021/acs.jctc.0c01306
   
   for ONIOM refer to:
   * C. Plett, A. Katbashev, S. Ehlert, S. Grimme, M. Bursch,
     Phys. Chem. Chem. Phys., 2023, 25, 17860-17868. DOI: 10.1039/D3CP02178E
   
   for DIPRO refer to:
   * J. Kohn, N. Gildemeister, S. Grimme, D. Fazzi, A. Hansen,
     J. Chem. Phys., 2023, just accepted.
   
   for PTB refer to:
   * S. Grimme, M. Mueller, A. Hansen, J. Chem. Phys., 2023, 158, 124111.
     DOI: 10.1063/5.0137838
   
   with help from (in alphabetical order)
   P. Atkinson, C. Bannwarth, F. Bohle, G. Brandenburg, E. Caldeweyher
   M. Checinski, S. Dohm, S. Ehlert, S. Ehrlich, I. Gerasimov, C. Hölzer
   A. Katbashev, J. Kohn, J. Koopman, C. Lavigne, S. Lehtola, F. März, M. Müller,
   F. Musil, H. Neugebauer, J. Pisarek, C. Plett, P. Pracht, F. Pultar,
   J. Seibert, P. Shushkov, S. Spicher, M. Stahn, M. Steiner, T. Strunk,
   J. Stückrath, T. Rose, and J. Unsleber
   
 * started run on 2025/04/11 at 16:44:05.080     
   ID    Z sym.   atoms
    1    6 C      1-4, 7, 8
    2    8 O      5, 6
    3    1 H      9-20

           -------------------------------------------------
          |                Calculation Setup                |
           -------------------------------------------------

          program call               : /srv/scratch/z5358697/.xtb/bin/xtb xtb_rrho.coord --gfn2 --bhess vtight --chrg 0 --enso --norestart -I rrho-xcontrol-inp --parallel 1 --alpb water
          hostname                   : k061
          coordinate file            : xtb_rrho.coord
          omp threads                :                     1


           -------------------------------------------------
          |                 G F N 2 - x T B                 |
           -------------------------------------------------

        Reference                      10.1021/acs.jctc.8b01176
      * Hamiltonian:
        H0-scaling (s, p, d)           1.850000    2.230000    2.230000
        zeta-weighting                 0.500000
      * Dispersion:
        s8                             2.700000
        a1                             0.520000
        a2                             5.000000
        s9                             5.000000
      * Repulsion:
        kExp                           1.500000    1.000000
        rExp                           1.000000
      * Coulomb:
        alpha                          2.000000
        third order                    shell-resolved
        anisotropic                    true
        a3                             3.000000
        a5                             4.000000
        cn-shift                       1.200000
        cn-exp                         4.000000
        max-rad                        5.000000

      * Solvation model:               ALPB
        Solvent                        water
        Parameter file                 internal GFN2-xTB/ALPB
        Dielectric constant                8.0200E+01
        Reference state                gsolv [1 M gas/solution]
        Free energy shift                  1.0808E-03 Eh       6.7819E-01 kcal/mol
        Temperature                        2.9815E+02 K
        Density                            1.0000E+00 kg/L
        Solvent mass                       1.8000E+01 g/mol
        Interaction kernel             P16
        Born radius scaling (c1)           1.4744E+00
        Born radii integrator          GBOBC
        Born offset                        0.0000E+00 a0       0.0000E+00 AA
        H-bond correction              true
        Ion screening                  false
        Surface tension                    1.0000E-05 Eh       1.5569E+01 dyn/cm
        Grid points                               974 per atom

          ...................................................
          :                      SETUP                      :
          :.................................................:
          :  # basis functions                  44          :
          :  # atomic orbitals                  44          :
          :  # shells                           28          :
          :  # electrons                        48          :
          :  max. iterations                   250          :
          :  Hamiltonian                  GFN2-xTB          :
          :  restarted?                      false          :
          :  GBSA solvation                   true          :
          :  PC potential                    false          :
          :  electronic temp.          300.0000000     K    :
          :  accuracy                    1.0000000          :
          :  -> integral cutoff          0.2500000E+02      :
          :  -> integral neglect         0.1000000E-07      :
          :  -> SCF convergence          0.1000000E-05 Eh   :
          :  -> wf. convergence          0.1000000E-03 e    :
          :  Broyden damping             0.4000000          :
          :  net charge                          0          :
          :  unpaired electrons                  0          :
          ...................................................

 iter      E             dE          RMSdq      gap      omega  full diag
   1    -27.3580794 -0.273581E+02  0.414E+00    5.70       0.0  T
   2    -27.4211548 -0.630754E-01  0.206E+00    4.75       1.0  T
   3    -27.4229011 -0.174632E-02  0.105E+00    5.09       1.0  T
   4    -27.4244986 -0.159754E-02  0.169E-01    4.84       1.0  T
   5    -27.4247292 -0.230631E-03  0.713E-02    4.90       1.0  T
   6    -27.4247311 -0.181817E-05  0.213E-02    4.89       1.0  T
   7    -27.4247321 -0.106732E-05  0.402E-03    4.89       5.6  T
   8    -27.4247321 -0.203633E-07  0.228E-03    4.89       9.8  T
   9    -27.4247322 -0.908511E-08  0.330E-04    4.89      67.7  T
  10    -27.4247322 -0.231186E-09  0.185E-04    4.89     120.9  T

   *** convergence criteria satisfied after 10 iterations ***

         #    Occupation            Energy/Eh            Energy/eV
      -------------------------------------------------------------
         1        2.0000           -0.7449813             -20.2720
       ...           ...                  ...                  ...
        18        2.0000           -0.4675171             -12.7218
        19        2.0000           -0.4643895             -12.6367
        20        2.0000           -0.4635462             -12.6137
        21        2.0000           -0.4422283             -12.0336
        22        2.0000           -0.4396155             -11.9625
        23        2.0000           -0.4292842             -11.6814
        24        2.0000           -0.4220937             -11.4858 (HOMO)
        25                         -0.2423613              -6.5950 (LUMO)
        26                         -0.0268034              -0.7294
        27                          0.0701417               1.9087
        28                          0.1087071               2.9581
        29                          0.1190909               3.2406
       ...                                ...                  ...
        44                          0.5748315              15.6420
      -------------------------------------------------------------
                  HL-Gap            0.1797323 Eh            4.8908 eV
             Fermi-level           -0.3322275 Eh           -9.0404 eV

 SCC (total)                   0 d,  0 h,  0 min,  0.066 sec
 SCC setup                      ...        0 min,  0.002 sec (  3.263%)
 Dispersion                     ...        0 min,  0.000 sec (  0.271%)
 classical contributions        ...        0 min,  0.000 sec (  0.059%)
 integral evaluation            ...        0 min,  0.003 sec (  4.297%)
 iterations                     ...        0 min,  0.056 sec ( 83.944%)
 molecular gradient             ...        0 min,  0.005 sec (  7.903%)
 printout                       ...        0 min,  0.000 sec (  0.231%)

         :::::::::::::::::::::::::::::::::::::::::::::::::::::
         ::                     SUMMARY                     ::
         :::::::::::::::::::::::::::::::::::::::::::::::::::::
         :: total energy             -27.120588085258 Eh    ::
         :: total w/o Gsasa/hb       -27.120479673991 Eh    ::
         :: gradient norm              0.035066781476 Eh/a0 ::
         :: HOMO-LUMO gap              4.890765145825 eV    ::
         ::.................................................::
         :: SCC energy               -27.424715827508 Eh    ::
         :: -> isotropic ES            0.060380143235 Eh    ::
         :: -> anisotropic ES          0.001047323942 Eh    ::
         :: -> anisotropic XC          0.008866494598 Eh    ::
         :: -> dispersion             -0.011043182710 Eh    ::
         :: -> Gsolv                  -0.009628110267 Eh    ::
         ::    -> Gelec               -0.009519699000 Eh    ::
         ::    -> Gsasa                0.001212035646 Eh    ::
         ::    -> Ghb                 -0.002401206611 Eh    ::
         ::    -> Gshift               0.001080759698 Eh    ::
         :: repulsion energy           0.304127742250 Eh    ::
         :: add. restraining           0.000000000000 Eh    ::
         :: total charge              -0.000000000000 e     ::
         :::::::::::::::::::::::::::::::::::::::::::::::::::::

metadynamics with 1 initial structures loaded
           -------------------------------------------------
          |           Optimal kpush determination           |
           -------------------------------------------------
      ----------------------------------------------------------- 
     |                   =====================                   |
     |                        A N C O P T                        |
     |                   =====================                   |
     |               Approximate Normal Coordinate               |
     |                Rational Function Optimizer                |
      ----------------------------------------------------------- 
target rmsd / Å         0.100000
unbiased initial rmsd   0.059350
 
iter. min.        max.        rmsd       kpush
final kpush:  0.000000
           -------------------------------------------------
          |            Biased Numerical Hessian             |
           -------------------------------------------------
kpush                :   0.00000
alpha                :   1.00000
step length          :   0.00500
SCC accuracy         :   0.30000
Hessian scale factor :   1.00000
frozen atoms in %    :   0.00000    0
RMS gradient         :   0.00020
estimated CPU  time      0.02 min
estimated wall time      0.02 min

writing file <hessian>.

 projected vibrational frequencies (cm⁻¹)
eigval :       -0.00    -0.00    -0.00     0.00     0.00     0.00
eigval :      -18.42    21.41    76.78   102.91   159.70   213.88
eigval :      232.19   238.46   323.84   356.21   449.35   591.52
eigval :      654.81   778.62   819.25   882.35   894.81   937.23
eigval :      987.51  1061.91  1074.19  1088.01  1118.17  1132.29
eigval :     1136.86  1207.07  1215.53  1233.44  1258.27  1269.92
eigval :     1320.12  1346.54  1395.59  1411.69  1433.94  1463.35
eigval :     1466.19  1481.03  1490.34  1496.25  1498.67  1683.24
eigval :     2926.20  2948.43  2954.32  2983.06  2992.19  3007.05
eigval :     3034.29  3039.05  3048.93  3056.69  3059.43  3065.41
           -------------------------------------------------
          |                Property Printout                |
           -------------------------------------------------

    * Orbital Energies and Occupations

         #    Occupation            Energy/Eh            Energy/eV
      -------------------------------------------------------------
         1        2.0000           -0.7501211             -20.4118
       ...           ...                  ...                  ...
        12        2.0000           -0.5295512             -14.4098
        13        2.0000           -0.5110298             -13.9058
        14        2.0000           -0.5022446             -13.6668
        15        2.0000           -0.4868193             -13.2470
        16        2.0000           -0.4780900             -13.0095
        17        2.0000           -0.4742329             -12.9045
        18        2.0000           -0.4664250             -12.6921
        19        2.0000           -0.4653796             -12.6636
        20        2.0000           -0.4637837             -12.6202
        21        2.0000           -0.4419125             -12.0251
        22        2.0000           -0.4390023             -11.9459
        23        2.0000           -0.4294862             -11.6869
        24        2.0000           -0.4206643             -11.4469 (HOMO)
        25                         -0.2375169              -6.4632 (LUMO)
        26                         -0.0051472              -0.1401
        27                          0.0806372               2.1942
        28                          0.1070281               2.9124
        29                          0.1195493               3.2531
        30                          0.1362014               3.7062
        31                          0.1460923               3.9754
        32                          0.1505582               4.0969
        33                          0.1592428               4.3332
        34                          0.1710309               4.6540
        35                          0.1813468               4.9347
       ...                                ...                  ...
        44                          0.5994164              16.3110
      -------------------------------------------------------------
                  HL-Gap            0.1831474 Eh            4.9837 eV
             Fermi-level           -0.3290906 Eh           -8.9550 eV

     #   Z          covCN         q      C6AA      α(0)
     1   6 C        3.753    -0.118    22.824     6.813
     2   6 C        3.801    -0.058    21.613     6.619
     3   6 C        3.804    -0.100    22.398     6.738
     4   6 C        2.715     0.362    20.859     7.476
     5   8 O        0.856    -0.501    23.809     6.542
     6   8 O        1.703    -0.263    18.353     5.784
     7   6 C        3.697     0.078    19.441     6.307
     8   6 C        3.752    -0.134    23.139     6.860
     9   1 H        0.925     0.046     2.372     2.409
    10   1 H        0.925     0.049     2.328     2.386
    11   1 H        0.925     0.044     2.395     2.420
    12   1 H        0.925     0.055     2.261     2.351
    13   1 H        0.924     0.042     2.420     2.433
    14   1 H        0.924     0.078     2.002     2.213
    15   1 H        0.924     0.092     1.862     2.134
    16   1 H        0.924     0.056     2.248     2.345
    17   1 H        0.924     0.056     2.246     2.344
    18   1 H        0.925     0.071     2.070     2.250
    19   1 H        0.925     0.071     2.074     2.252
    20   1 H        0.925     0.073     2.049     2.238

 Mol. C6AA /au·bohr⁶  :       2995.521002
 Mol. C8AA /au·bohr⁸  :      63821.277755
 Mol. α(0) /au        :         80.912616


Wiberg/Mayer (AO) data.
largest (>0.10) Wiberg bond orders for each atom

 ---------------------------------------------------------------------------
     #   Z sym  total        # sym  WBO       # sym  WBO       # sym  WBO
 ---------------------------------------------------------------------------
     1   6 C    3.994 --     2 C    1.019    11 H    0.987     9 H    0.987
                            10 H    0.986
     2   6 C    3.993 --     1 C    1.019     3 C    1.001    13 H    0.978
                            12 H    0.976
     3   6 C    3.988 --     2 C    1.001     4 C    0.983    14 H    0.963
                            15 H    0.937
     4   6 C    3.904 --     5 O    1.680     6 O    1.176     3 C    0.983
     5   8 O    1.957 --     4 C    1.680     6 O    0.170
     6   8 O    2.324 --     4 C    1.176     7 C    0.918     5 O    0.170
     7   6 C    3.913 --     8 C    1.020    16 H    0.969    17 H    0.969
                             6 O    0.918
     8   6 C    3.984 --     7 C    1.020    19 H    0.984    18 H    0.983
                            20 H    0.980
     9   1 H    0.998 --     1 C    0.987
    10   1 H    0.997 --     1 C    0.986
    11   1 H    0.998 --     1 C    0.987
    12   1 H    0.997 --     2 C    0.976
    13   1 H    0.998 --     2 C    0.978
    14   1 H    0.994 --     3 C    0.963
    15   1 H    0.992 --     3 C    0.937
    16   1 H    0.997 --     7 C    0.969
    17   1 H    0.997 --     7 C    0.969
    18   1 H    0.995 --     8 C    0.983
    19   1 H    0.995 --     8 C    0.984
    20   1 H    0.994 --     8 C    0.980
 ---------------------------------------------------------------------------

Topologies differ in total number of bonds
Writing topology from bond orders to xtbtopo.mol

molecular dipole:
                 x           y           z       tot (Debye)
 q only:        0.017      -1.429       0.169
   full:        0.003      -1.330       0.134       3.398
molecular quadrupole (traceless):
                xx          xy          yy          xz          yz          zz
 q only:       10.866      -3.044      -9.347       1.448       1.027      -1.519
  q+dip:        8.698      -2.920     -10.454       1.120       2.115       1.756
   full:        9.220      -2.866     -10.725       1.162       1.895       1.504

           -------------------------------------------------
          |                Geometry Summary                 |
           -------------------------------------------------

      molecular mass/u    :      116.1585142
   center of mass at/Å    :       -0.0000528       0.0000244      -0.0007054
  moments of inertia/u·Å² :        0.1518178E+03   0.4765280E+03   0.6083018E+03
rotational constants/cm⁻¹ :        0.1110386E+00   0.3537595E-01   0.2771261E-01

 * 18 selected distances

     #   Z          #   Z                                           value/Å
     1   6 C        2   6 C                                       1.5239161
     2   6 C        3   6 C                                       1.5282738 (max)
     4   6 C        5   8 O                                       1.2164539
     4   6 C        6   8 O                                       1.3231650
     6   8 O        7   6 C                                       1.4375599
     7   6 C        8   6 C                                       1.5162397
     1   6 C        9   1 H                                       1.0870789
     1   6 C       10   1 H                                       1.0864280
     1   6 C       11   1 H                                       1.0872899
     2   6 C       12   1 H                                       1.0900702
     2   6 C       13   1 H                                       1.0913487
     3   6 C       14   1 H                                       1.0913261
     3   6 C       15   1 H                                       1.0935141
     7   6 C       16   1 H                                       1.0950207
     7   6 C       17   1 H                                       1.0949419
     8   6 C       18   1 H                                       1.0858224
     8   6 C       19   1 H                                       1.0858619
     8   6 C       20   1 H                                       1.0849154 (min)

 * 3 distinct bonds (by element types)

   Z      Z             #   av. dist./Å        max./Å        min./Å
   1 H    6 C          12     1.0894682     1.0950207     1.0849154
   6 C    6 C           3     1.5228099     1.5282738     1.5162397
   6 C    8 O           3     1.3257262     1.4375599     1.2164539

           -------------------------------------------------
          |               Frequency Printout                |
           -------------------------------------------------
 projected vibrational frequencies (cm⁻¹)
eigval :       -0.00    -0.00    -0.00     0.00     0.00     0.00
eigval :      -18.42    21.41    76.78   102.91   159.70   213.88
eigval :      232.19   238.46   323.84   356.21   449.35   591.52
eigval :      654.81   778.62   819.25   882.35   894.81   937.23
eigval :      987.51  1061.91  1074.19  1088.01  1118.17  1132.29
eigval :     1136.86  1207.07  1215.53  1233.44  1258.27  1269.92
eigval :     1320.12  1346.54  1395.59  1411.69  1433.94  1463.35
eigval :     1466.19  1481.03  1490.34  1496.25  1498.67  1683.24
eigval :     2926.20  2948.43  2954.32  2983.06  2992.19  3007.05
eigval :     3034.29  3039.05  3048.93  3056.69  3059.43  3065.41
 reduced masses (amu)
   1: 10.25   2: 12.05   3: 12.38   4: 10.52   5: 11.30   6: 11.21   7:  8.23   8:  9.18
   9:  8.07  10:  9.44  11:  6.50  12:  8.05  13:  1.93  14:  8.86  15:  9.62  16: 10.78
  17: 11.55  18: 10.39  19: 10.83  20:  3.05  21:  2.14  22:  5.58  23:  8.16  24:  7.27
  25:  9.99  26:  6.37  27:  7.99  28:  8.97  29:  8.13  30:  7.86  31:  5.10  32:  5.70
  33: 10.92  34:  2.24  35:  2.97  36:  3.29  37:  3.94  38:  5.15  39:  3.36  40:  3.18
  41:  1.92  42:  1.52  43:  1.88  44:  1.57  45:  1.84  46:  1.53  47:  1.62  48: 13.35
  49:  1.98  50:  1.46  51:  1.81  52:  1.87  53:  1.64  54:  1.61  55:  1.95  56:  1.78
  57:  1.42  58:  1.96  59:  1.39  60:  1.83
 IR intensities (km·mol⁻¹)
   1:  1.25   2:  1.19   3:  0.18   4:  0.68   5:  0.56   6:  0.15   7:  3.06   8:  0.98
   9:  0.28  10:  1.19  11:  5.87  12:  4.55  13:  0.30  14:  5.22  15:  4.97  16: 10.78
  17:  7.08  18: 17.18  19: 11.40  20: 29.69  21:  3.03  22:  4.66  23: 15.15  24:  4.04
  25:  9.13  26: 20.59  27: 87.35  28:  7.07  29: 13.95  30: 32.63  31: 12.74  32: 74.62
  33:501.31  34:  2.98  35:  1.51  36:  1.98  37:  4.86  38:  3.08  39:  8.08  40:  1.61
  41:  6.76  42:  5.29  43:  0.68  44:  4.37  45:  0.57  46:  2.34  47:  1.13  48:683.14
  49: 39.32  50: 38.87  51:  4.32  52: 56.14  53: 14.67  54: 39.94  55: 80.47  56: 66.81
  57: 40.23  58: 30.05  59: 19.20  60: 23.23
 Raman intensities (Ä⁴*amu⁻¹)
   1:  0.00   2:  0.00   3:  0.00   4:  0.00   5:  0.00   6:  0.00   7:  0.00   8:  0.00
   9:  0.00  10:  0.00  11:  0.00  12:  0.00  13:  0.00  14:  0.00  15:  0.00  16:  0.00
  17:  0.00  18:  0.00  19:  0.00  20:  0.00  21:  0.00  22:  0.00  23:  0.00  24:  0.00
  25:  0.00  26:  0.00  27:  0.00  28:  0.00  29:  0.00  30:  0.00  31:  0.00  32:  0.00
  33:  0.00  34:  0.00  35:  0.00  36:  0.00  37:  0.00  38:  0.00  39:  0.00  40:  0.00
  41:  0.00  42:  0.00  43:  0.00  44:  0.00  45:  0.00  46:  0.00  47:  0.00  48:  0.00
  49:  0.00  50:  0.00  51:  0.00  52:  0.00  53:  0.00  54:  0.00  55:  0.00  56:  0.00
  57:  0.00  58:  0.00  59:  0.00  60:  0.00
 output can be read by thermo (or use thermo option).
 writing <g98.out> molden fake output.
 recommended (thermochemical) frequency scaling factor: 1.0
           -------------------------------------------------
          |             Thermodynamic Functions             |
           -------------------------------------------------

Molecule has no symmetry elements
It seems to be the C1 point group
c1  symmetry found (for desy threshold:  0.10E+00) used in thermo
 inverting freq            1   18.4170527817490     

          ...................................................
          :                      SETUP                      :
          :.................................................:
          :  # frequencies                          54      :
          :  # imaginary freq.                       0      :
          :  linear?                             false      :
          :  only rotor calc.                    false      :
          :  symmetry                               c1      :
          :  rotational number                       1      :
          :  scaling factor                  1.0000000      :
          :  rotor cutoff                    0.0000000 cm⁻¹ :
          :  imag. cutoff                 -100.0000000 cm⁻¹ :
          :.................................................:

    mode    ω/cm⁻¹     T·S(HO)/kcal·mol⁻¹    T·S(FR)/kcal·mol⁻¹   T·S(vib)
   ------------------------------------------------------------------------
       1     18.42    -2.02680 (100.00%)    -1.35176 (  0.00%)    -2.02680
       2     21.41    -1.93758 (100.00%)    -1.30721 (  0.00%)    -1.93758
       3     76.78    -1.18411 (100.00%)    -0.92932 (  0.00%)    -1.18411
       4    102.91    -1.01327 (100.00%)    -0.84261 (  0.00%)    -1.01327
       5    159.70    -0.76127 (100.00%)    -0.71245 (  0.00%)    -0.76127
       6    213.88    -0.59937 (100.00%)    -0.62594 (  0.00%)    -0.59937
       7    232.19    -0.55514 (100.00%)    -0.60161 (  0.00%)    -0.55514
       8    238.46    -0.54095 (100.00%)    -0.59372 (  0.00%)    -0.54095
   ------------------------------------------------------------------------

   temp. (K)  partition function   enthalpy   heat capacity  entropy
                                   cal/mol     cal/K/mol   cal/K/mol   J/K/mol
 298.15  VIB  0.138E+05             4674.353     28.545     34.624
         ROT  0.507E+06              888.752      2.981     29.085
         INT  0.700E+10             5563.106     31.526     63.709
         TR   0.121E+28             1481.254      4.968     40.146
         TOT                        7044.3596    36.4945   103.8558   434.5325

       T/K    H(0)-H(T)+PV         H(T)/Eh          T*S/Eh         G(T)/Eh
   ------------------------------------------------------------------------
    298.15    0.112259E-01    0.182400E+00    0.493452E-01    0.133055E+00
   ------------------------------------------------------------------------

         :::::::::::::::::::::::::::::::::::::::::::::::::::::
         ::                  THERMODYNAMIC                  ::
         :::::::::::::::::::::::::::::::::::::::::::::::::::::
         :: total free energy         -26.988918188008 Eh   ::
         ::.................................................::
         :: total energy              -27.121973288286 Eh   ::
         :: zero point energy           0.171174421195 Eh   ::
         :: G(RRHO) w/o ZPVE           -0.038119320918 Eh   ::
         :: G(RRHO) contrib.            0.133055100278 Eh   ::
         :::::::::::::::::::::::::::::::::::::::::::::::::::::
imag cut-off (cm-1) :    5.00
 found            1  significant imaginary frequency
 writing imag mode distorted coords to xtbhess.coord
 for further optimization.

optimized geometry written to: xtbopt.coord


           -------------------------------------------------
          | TOTAL ENERGY              -27.121973288286 Eh   |
          | TOTAL ENTHALPY            -26.939572965494 Eh   |
          | TOTAL FREE ENERGY         -26.988918188008 Eh   |
          | GRADIENT NORM               0.000196951049 Eh/α |
          | HOMO-LUMO GAP               4.983693948477 eV   |
           -------------------------------------------------

------------------------------------------------------------------------
 * finished run on 2025/04/11 at 16:44:06.555     
------------------------------------------------------------------------
 total:
 * wall-time:     0 d,  0 h,  0 min,  1.473 sec
 *  cpu-time:     0 d,  0 h,  0 min,  1.339 sec
 * ratio c/w:     0.909 speedup
 SCF:
 * wall-time:     0 d,  0 h,  0 min,  0.066 sec
 *  cpu-time:     0 d,  0 h,  0 min,  0.018 sec
 * ratio c/w:     0.267 speedup
 analytical hessian:
 * wall-time:     0 d,  0 h,  0 min,  1.148 sec
 *  cpu-time:     0 d,  0 h,  0 min,  1.133 sec
 * ratio c/w:     0.987 speedup

