16
 energy: -213.728098152576 gnorm: 0.022835729477 xtb: 6.7.1 (edcfbbe)
C            2.43049766307702       -0.29557036433098       -0.12740537355646
C            1.03058734775668        0.24152829720703       -0.40033467977740
C            0.05000673172216       -0.16394794617265        0.69899884350974
C           -1.34795540779731        0.42616200518884        0.50910023142560
N           -2.05268563270960       -0.22892891380144       -0.58637535325984
H            2.41527224377027       -1.38141922791214       -0.07197805163190
H            3.11448654938011       -0.00008213840004       -0.91923835560734
H            2.80888112954469        0.09016347773995        0.81653275686183
H            1.06717876057290        1.33209982849029       -0.46711722220699
H            0.68458918200336       -0.14273369936325       -1.36168487460340
H           -0.03582999991588       -1.25074093275424        0.72896626172302
H            0.43813772089415        0.17446890517731        1.66181409533639
H           -1.26015881845841        1.51862922567294        0.37227233106496
H           -1.93392300265697        0.25128675251135        1.41613138922753
H           -1.56670290299425       -0.05268246992335       -1.45918687754660
H           -2.98372038832217        0.16165997017164       -0.67544442959931
16
 energy: -213.728889827773 gnorm: 0.008889117863 xtb: 6.7.1 (edcfbbe)
C            2.43556349280849       -0.29664175442130       -0.13276141416933
C            1.02935317269010        0.23610290936594       -0.39885786326398
C            0.04498989988871       -0.15724858578315        0.70334072699193
C           -1.35678155078222        0.41620781183860        0.51292501017253
N           -2.05987346977647       -0.23439352561576       -0.60004379101955
H            2.42938924637876       -1.38873327075211       -0.07286456794738
H            3.13045345420621       -0.00505562834450       -0.92456532778587
H            2.82124648228235        0.08926635462061        0.81538787244104
H            1.05833867264312        1.32978863594114       -0.47461908445760
H            0.68113127556737       -0.14255528872121       -1.36645425503400
H           -0.02719262181018       -1.25023131191470        0.75336166035107
H            0.43833015752999        0.18748882632093        1.66668582541804
H           -1.26871121303997        1.50992080051256        0.38866537557360
H           -1.93935723567841        0.24918385754422        1.42517826970352
H           -1.57370636211234       -0.03442558073169       -1.46792673036333
H           -2.98451266277893        0.17121855341178       -0.69240036911757
16
 energy: -213.729109074878 gnorm: 0.003460800362 xtb: 6.7.1 (edcfbbe)
C            2.43417553043517       -0.29780716659045       -0.13498981673606
C            1.02565296045480        0.23118739725078       -0.40016330211233
C            0.04421092873789       -0.15674835620953        0.70774060954946
C           -1.35768650893750        0.40924549220894        0.51559525819927
N           -2.05853615796081       -0.23775700069561       -0.61051781217204
H            2.43679829508977       -1.39308536191532       -0.07162741938183
H            3.13183041402593       -0.00822630836847       -0.92893169455979
H            2.82731184201180        0.08967398377054        0.81325401853332
H            1.05086940857728        1.32663147116658       -0.48541150611284
H            0.67506651454311       -0.14791109716177       -1.36938726397593
H           -0.01427142725089       -1.25332897077406        0.78154060500100
H            0.43762415197613        0.20271555265798        1.66861596208004
H           -1.28089439432407        1.50472682857575        0.40005335909688
H           -1.94315741240566        0.23550982645016        1.42564179854530
H           -1.57250315905226       -0.00779006002067       -1.47274628157689
H           -2.97783102254631        0.18285667311930       -0.70361426362313
16
 energy: -213.729175635652 gnorm: 0.003235523584 xtb: 6.7.1 (edcfbbe)
C            2.43327446368225       -0.29896866327959       -0.13704908602469
C            1.02415257874402        0.22680647443165       -0.40054469368101
C            0.04467777817419       -0.15452078953319        0.71117430365798
C           -1.35850835742736        0.40454386621954        0.51860473450984
N           -2.05422450087424       -0.23757658663150       -0.61748196358103
H            2.43818107899014       -1.39407736601476       -0.07071588788361
H            3.12877150300322       -0.01050951285186       -0.93331119280468
H            2.82820705621019        0.09161422511122        0.80920438058109
H            1.04828892866115        1.32196225072287       -0.49192123744738
H            0.67134279239838       -0.15724064173535       -1.36711196017059
H           -0.00779643884869       -1.25056784005398        0.79727423675719
H            0.43770338239100        0.21593305762896        1.66846647612580
H           -1.28889923546490        1.50066418516525        0.40895838288208
H           -1.94823663196172        0.21943910452163        1.42386748706017
H           -1.56688108531594        0.01289120069905       -1.47438404428850
H           -2.97139414455427        0.18950012172894       -0.70997687048070
16
 energy: -213.729230667142 gnorm: 0.003184367074 xtb: 6.7.1 (edcfbbe)
C            2.43041897756371       -0.30063468271453       -0.13940366384836
C            1.02073086708979        0.22129311890207       -0.40164197287425
C            0.04645247948585       -0.15162543182274        0.71702543202973
C           -1.35864306935484        0.39931120311887        0.52248585722575
N           -2.04417703423700       -0.23375742032420       -0.62814115436176
H            2.43705453461469       -1.39451017228892       -0.06815493634519
H            3.12086700542158       -0.01423377925186       -0.93974799669897
H            2.82718054259947        0.09564340926827        0.80270347556982
H            1.04398969362511        1.31524677968287       -0.50246479604718
H            0.66448728919520       -0.17298556801379       -1.36220627002359
H           -0.00024600370651       -1.24553501088932        0.81677062890910
H            0.43894296594971        0.23381550382769        1.66833470241202
H           -1.29900029709756        1.49653775694496        0.42467094522069
H           -1.95376289613766        0.19457701502488        1.42009293497122
H           -1.55455315675543        0.04138306640067       -1.47683471484408
H           -2.96108406962870        0.19536761121231       -0.71843414175353
16
 energy: -213.729257680082 gnorm: 0.002611645712 xtb: 6.7.1 (edcfbbe)
C            2.42885698871692       -0.30144672344467       -0.14100904147948
C            1.01813003212271        0.21765027497170       -0.40250150511453
C            0.04739631855299       -0.14971162213549        0.72073818321504
C           -1.35936407253523        0.39690315360296        0.52518282536415
N           -2.03585181827376       -0.22795364887464       -0.63533567172186
H            2.43586919939334       -1.39438496594964       -0.06522271299519
H            3.11601265733827       -0.01758744065846       -0.94441876363539
H            2.82656816302575        0.09965088636892        0.79792591178731
H            1.04025829768103        1.31054390987720       -0.51055807959809
H            0.65976435449813       -0.18475886598529       -1.35834759246555
H            0.00324571918533       -1.24211345495616        0.82716827278366
H            0.43996169122439        0.24414653692628        1.66797819742652
H           -1.30522748763375        1.49505770233108        0.43824410215164
H           -1.95779821873384        0.17847296655537        1.41720494745765
H           -1.54415724766676        0.05909330823577       -1.47815147277907
H           -2.95500772204539        0.19633159946700       -0.72384241780731
16
 energy: -213.729278038630 gnorm: 0.001703992968 xtb: 6.7.1 (edcfbbe)
C            2.42771366199284       -0.30163791567871       -0.14202717751426
C            1.01540524094387        0.21427830754511       -0.40375084890330
C            0.04795979753663       -0.14852482330361        0.72366257260128
C           -1.36037939900995        0.39528224250923        0.52722818328665
N           -2.02806727228386       -0.22016511864585       -0.64165257166081
H            2.43541483612789       -1.39403205815487       -0.06039676970468
H            3.11246154465483       -0.02148532163886       -0.94863545628796
H            2.82662585408553        0.10513924439347        0.79374469981129
H            1.03556749331669        1.30625766782038       -0.51935262844007
H            0.65605751111510       -0.19601011362511       -1.35556603773401
H            0.00533169272634       -1.24014454202863        0.83469163355556
H            0.44119554440934        0.25107424898422        1.66772266687249
H           -1.30978676948507        1.49451501034387        0.45263433096563
H           -1.96104267238377        0.16524680101788        1.41446121291620
H           -1.53457134685496        0.07507734680281       -1.47946496091194
H           -2.95122972265531        0.19502278494434       -0.72824296919125
16
 energy: -213.729287295854 gnorm: 0.000676223114 xtb: 6.7.1 (edcfbbe)
C            2.42736483612156       -0.30088989440458       -0.14241094867559
C            1.01275265948809        0.20972984914091       -0.40563711256926
C            0.04789922710656       -0.14841804590083        0.72551467040324
C           -1.36193063347736        0.39322653230497        0.52894264417116
N           -2.02126722086323       -0.21078296142321       -0.64790747350660
H            2.43722383595167       -1.39302727293740       -0.05170519850333
H            3.11039870480618       -0.02655379073960       -0.95291177058525
H            2.82787467707163        0.11420083521596        0.78945506766338
H            1.02934157450145        1.30099053232390       -0.53026830657489
H            0.65373418737656       -0.20892920851930       -1.35402414589580
H            0.00676206559090       -1.24008944991138        0.84116895100372
H            0.44239771176423        0.25558052062050        1.66721429122167
H           -1.31336924673185        1.49373702030277        0.46860663132348
H           -1.96414371502892        0.15291322057947        1.41214722560935
H           -1.52709589464056        0.09481473730781       -1.48130111888864
H           -2.94928754578605        0.19339116267079       -0.73182695209536
16
 energy: -213.729291182364 gnorm: 0.000551534014 xtb: 6.7.1 (edcfbbe)
C            2.42807917094877       -0.29976282057861       -0.14144246014432
C            1.01306610832760        0.20857249071485       -0.40622376127649
C            0.04759405942839       -0.15009488498002        0.72422470137950
C           -1.36166643861500        0.39316397654577        0.52849974090103
N           -2.02269432184083       -0.20946830819753       -0.64738303885229
H            2.43940972716276       -1.39174708156369       -0.04745304051220
H            3.11121489374453       -0.02722350428366       -0.95260236466172
H            2.82830329855004        0.11836520791477        0.78933529882456
H            1.02822051870151        1.29984158079660       -0.53155108167253
H            0.65544635397878       -0.21069511003696       -1.35499147348337
H            0.00572630185433       -1.24205604154756        0.83874550707734
H            0.44249806633195        0.25206945457239        1.66676415867989
H           -1.31159627360032        1.49355378868657        0.46853447176146
H           -1.96350279728579        0.15391616077590        1.41231039363457
H           -1.53048325566671        0.09726732659153       -1.48149814943317
H           -2.95096000096799        0.19419139506399       -0.73021264247386
16
 energy: -213.729291182364 gnorm: 0.000551534014 xtb: 6.7.1 (edcfbbe)
C            2.42807917094877       -0.29976282057861       -0.14144246014432
C            1.01306610832760        0.20857249071485       -0.40622376127649
C            0.04759405942839       -0.15009488498002        0.72422470137950
C           -1.36166643861500        0.39316397654577        0.52849974090103
N           -2.02269432184083       -0.20946830819753       -0.64738303885229
H            2.43940972716276       -1.39174708156369       -0.04745304051220
H            3.11121489374453       -0.02722350428366       -0.95260236466172
H            2.82830329855004        0.11836520791477        0.78933529882456
H            1.02822051870151        1.29984158079660       -0.53155108167253
H            0.65544635397878       -0.21069511003696       -1.35499147348337
H            0.00572630185433       -1.24205604154756        0.83874550707734
H            0.44249806633195        0.25206945457239        1.66676415867989
H           -1.31159627360032        1.49355378868657        0.46853447176146
H           -1.96350279728579        0.15391616077590        1.41231039363457
H           -1.53048325566671        0.09726732659153       -1.48149814943317
H           -2.95096000096799        0.19419139506399       -0.73021264247386
