      -----------------------------------------------------------      
     |                   =====================                   |     
     |                           x T B                           |     
     |                   =====================                   |     
     |                         S. Grimme                         |     
     |          Mulliken Center for Theoretical Chemistry        |     
     |                    University of Bonn                     |     
      -----------------------------------------------------------      

   * xtb version 6.7.1 (edcfbbe) compiled by 'albert@albert-system' on 2024-07-22

   xtb is free software: you can redistribute it and/or modify it under
   the terms of the GNU Lesser General Public License as published by
   the Free Software Foundation, either version 3 of the License, or
   (at your option) any later version.
   
   xtb is distributed in the hope that it will be useful,
   but WITHOUT ANY WARRANTY; without even the implied warranty of
   MERCHANTABILITY or FITNESS FOR A PARTICULAR PURPOSE.  See the
   GNU Lesser General Public License for more details.
   
   Cite this work as:
   * C. Bannwarth, E. Caldeweyher, S. Ehlert, A. Hansen, P. Pracht,
     J. Seibert, S. Spicher, S. Grimme, WIREs Comput. Mol. Sci., 2020, 11,
     e01493. DOI: 10.1002/wcms.1493
   
   for GFN2-xTB:
   * C. Bannwarth, S. Ehlert and S. Grimme., J. Chem. Theory Comput., 2019,
     15, 1652-1671. DOI: 10.1021/acs.jctc.8b01176
   for GFN1-xTB:
   * S. Grimme, C. Bannwarth, P. Shushkov, J. Chem. Theory Comput., 2017,
     13, 1989-2009. DOI: 10.1021/acs.jctc.7b00118
   for GFN0-xTB:
   * P. Pracht, E. Caldeweyher, S. Ehlert, S. Grimme, ChemRxiv, 2019, preprint.
     DOI: 10.26434/chemrxiv.8326202.v1
   for GFN-FF:
   * S. Spicher and S. Grimme, Angew. Chem. Int. Ed., 2020, 59, 15665-15673.
     DOI: 10.1002/anie.202004239
   
   for ALPB and GBSA implicit solvation:
   * S. Ehlert, M. Stahn, S. Spicher, S. Grimme, J. Chem. Theory Comput.,
     2021, 17, 4250-4261. DOI: 10.1021/acs.jctc.1c00471
   
   for ddCOSMO and CPCM-X implicit solvation:
   * M. Stahn, S. Ehlert, S. Grimme, J. Phys. Chem. A,
     2023, XX, XXXX-XXXX. DOI: 10.1021/acs.jpca.3c04382
   
   for DFT-D4:
   * E. Caldeweyher, C. Bannwarth and S. Grimme, J. Chem. Phys., 2017,
     147, 034112. DOI: 10.1063/1.4993215
   * E. Caldeweyher, S. Ehlert, A. Hansen, H. Neugebauer, S. Spicher,
     C. Bannwarth and S. Grimme, J. Chem. Phys., 2019, 150, 154122.
     DOI: 10.1063/1.5090222
   * E. Caldeweyher, J.-M. Mewes, S. Ehlert and S. Grimme, Phys. Chem. Chem. Phys.
     2020, 22, 8499-8512. DOI: 10.1039/D0CP00502A
   
   for sTDA-xTB:
   * S. Grimme and C. Bannwarth, J. Chem. Phys., 2016, 145, 054103.
     DOI: 10.1063/1.4959605
   
   in the mass-spec context:
   * V. Asgeirsson, C. Bauer and S. Grimme, Chem. Sci., 2017, 8, 4879.
     DOI: 10.1039/c7sc00601b
   * J. Koopman and S. Grimme, ACS Omega 2019, 4, 12, 15120-15133.
     DOI: 10.1021/acsomega.9b02011
   
   for metadynamics refer to:
   * S. Grimme, J. Chem. Theory Comput., 2019, 155, 2847-2862
     DOI: 10.1021/acs.jctc.9b00143
   
   for SPH calculations refer to:
   * S. Spicher and S. Grimme, J. Chem. Theory Comput., 2021, 17, 1701-1714
     DOI: 10.1021/acs.jctc.0c01306
   
   for ONIOM refer to:
   * C. Plett, A. Katbashev, S. Ehlert, S. Grimme, M. Bursch,
     Phys. Chem. Chem. Phys., 2023, 25, 17860-17868. DOI: 10.1039/D3CP02178E
   
   for DIPRO refer to:
   * J. Kohn, N. Gildemeister, S. Grimme, D. Fazzi, A. Hansen,
     J. Chem. Phys., 2023, just accepted.
   
   for PTB refer to:
   * S. Grimme, M. Mueller, A. Hansen, J. Chem. Phys., 2023, 158, 124111.
     DOI: 10.1063/5.0137838
   
   with help from (in alphabetical order)
   P. Atkinson, C. Bannwarth, F. Bohle, G. Brandenburg, E. Caldeweyher
   M. Checinski, S. Dohm, S. Ehlert, S. Ehrlich, I. Gerasimov, C. Hölzer
   A. Katbashev, J. Kohn, J. Koopman, C. Lavigne, S. Lehtola, F. März, M. Müller,
   F. Musil, H. Neugebauer, J. Pisarek, C. Plett, P. Pracht, F. Pultar,
   J. Seibert, P. Shushkov, S. Spicher, M. Stahn, M. Steiner, T. Strunk,
   J. Stückrath, T. Rose, and J. Unsleber
   
 * started run on 2025/04/11 at 15:53:54.030     
   ID    Z sym.   atoms
    1    6 C      1-4, 7, 8
    2    8 O      5, 6
    3    1 H      9-20

           -------------------------------------------------
          |                Calculation Setup                |
           -------------------------------------------------

          program call               : /srv/scratch/z5358697/.xtb/bin/xtb gas.coord --gfn2 --sp --chrg 0 --norestart --parallel 1
          hostname                   : k061
          coordinate file            : gas.coord
          omp threads                :                     1


           -------------------------------------------------
          |                 G F N 2 - x T B                 |
           -------------------------------------------------

        Reference                      10.1021/acs.jctc.8b01176
      * Hamiltonian:
        H0-scaling (s, p, d)           1.850000    2.230000    2.230000
        zeta-weighting                 0.500000
      * Dispersion:
        s8                             2.700000
        a1                             0.520000
        a2                             5.000000
        s9                             5.000000
      * Repulsion:
        kExp                           1.500000    1.000000
        rExp                           1.000000
      * Coulomb:
        alpha                          2.000000
        third order                    shell-resolved
        anisotropic                    true
        a3                             3.000000
        a5                             4.000000
        cn-shift                       1.200000
        cn-exp                         4.000000
        max-rad                        5.000000


          ...................................................
          :                      SETUP                      :
          :.................................................:
          :  # basis functions                  44          :
          :  # atomic orbitals                  44          :
          :  # shells                           28          :
          :  # electrons                        48          :
          :  max. iterations                   250          :
          :  Hamiltonian                  GFN2-xTB          :
          :  restarted?                      false          :
          :  GBSA solvation                  false          :
          :  PC potential                    false          :
          :  electronic temp.          300.0000000     K    :
          :  accuracy                    1.0000000          :
          :  -> integral cutoff          0.2500000E+02      :
          :  -> integral neglect         0.1000000E-07      :
          :  -> SCF convergence          0.1000000E-05 Eh   :
          :  -> wf. convergence          0.1000000E-03 e    :
          :  Broyden damping             0.4000000          :
          :  net charge                          0          :
          :  unpaired electrons                  0          :
          ...................................................

 iter      E             dE          RMSdq      gap      omega  full diag
   1    -27.3561991 -0.273562E+02  0.383E+00    5.94       0.0  T
   2    -27.4268421 -0.706430E-01  0.198E+00    4.71       1.0  T
   3    -27.4301159 -0.327379E-02  0.111E+00    5.19       1.0  T
   4    -27.4322859 -0.217005E-02  0.181E-01    4.90       1.0  T
   5    -27.4325718 -0.285850E-03  0.711E-02    4.97       1.0  T
   6    -27.4325776 -0.585022E-05  0.247E-02    4.97       1.0  T
   7    -27.4325789 -0.129555E-05  0.789E-03    4.97       2.8  T
   8    -27.4325791 -0.151835E-06  0.177E-03    4.97      12.7  T
   9    -27.4325791 -0.574830E-08  0.857E-04    4.97      26.1  T
  10    -27.4325791 -0.217495E-08  0.257E-04    4.97      87.1  T

   *** convergence criteria satisfied after 10 iterations ***

         #    Occupation            Energy/Eh            Energy/eV
      -------------------------------------------------------------
         1        2.0000           -0.7410965             -20.1663
       ...           ...                  ...                  ...
        18        2.0000           -0.4704465             -12.8015
        19        2.0000           -0.4628339             -12.5944
        20        2.0000           -0.4506652             -12.2632
        21        2.0000           -0.4479096             -12.1882
        22        2.0000           -0.4447823             -12.1031
        23        2.0000           -0.4355995             -11.8533
        24        2.0000           -0.4088672             -11.1258 (HOMO)
        25                         -0.2262590              -6.1568 (LUMO)
        26                         -0.0026089              -0.0710
        27                          0.1018196               2.7707
        28                          0.1077436               2.9319
        29                          0.1107171               3.0128
       ...                                ...                  ...
        44                          0.6305120              17.1571
      -------------------------------------------------------------
                  HL-Gap            0.1826082 Eh            4.9690 eV
             Fermi-level           -0.3175631 Eh           -8.6413 eV

 SCC (total)                   0 d,  0 h,  0 min,  0.028 sec
 SCC setup                      ...        0 min,  0.001 sec (  1.814%)
 Dispersion                     ...        0 min,  0.000 sec (  1.071%)
 classical contributions        ...        0 min,  0.000 sec (  0.245%)
 integral evaluation            ...        0 min,  0.004 sec ( 15.061%)
 iterations                     ...        0 min,  0.015 sec ( 54.317%)
 molecular gradient             ...        0 min,  0.008 sec ( 26.864%)
 printout                       ...        0 min,  0.000 sec (  0.537%)

         :::::::::::::::::::::::::::::::::::::::::::::::::::::
         ::                     SUMMARY                     ::
         :::::::::::::::::::::::::::::::::::::::::::::::::::::
         :: total energy             -27.115976432208 Eh    ::
         :: gradient norm              0.026500227103 Eh/a0 ::
         :: HOMO-LUMO gap              4.969022157057 eV    ::
         ::.................................................::
         :: SCC energy               -27.432565211971 Eh    ::
         :: -> isotropic ES            0.047973656247 Eh    ::
         :: -> anisotropic ES          0.002500876253 Eh    ::
         :: -> anisotropic XC          0.007792277574 Eh    ::
         :: -> dispersion             -0.011502457077 Eh    ::
         :: repulsion energy           0.316588779763 Eh    ::
         :: add. restraining           0.000000000000 Eh    ::
         :: total charge               0.000000000000 e     ::
         :::::::::::::::::::::::::::::::::::::::::::::::::::::

           -------------------------------------------------
          |                Property Printout                |
           -------------------------------------------------

    * Orbital Energies and Occupations

         #    Occupation            Energy/Eh            Energy/eV
      -------------------------------------------------------------
         1        2.0000           -0.7410965             -20.1663
       ...           ...                  ...                  ...
        12        2.0000           -0.5195767             -14.1384
        13        2.0000           -0.5144812             -13.9997
        14        2.0000           -0.5085354             -13.8380
        15        2.0000           -0.4948854             -13.4665
        16        2.0000           -0.4868397             -13.2476
        17        2.0000           -0.4760857             -12.9550
        18        2.0000           -0.4704465             -12.8015
        19        2.0000           -0.4628339             -12.5944
        20        2.0000           -0.4506652             -12.2632
        21        2.0000           -0.4479096             -12.1882
        22        2.0000           -0.4447823             -12.1031
        23        2.0000           -0.4355995             -11.8533
        24        2.0000           -0.4088672             -11.1258 (HOMO)
        25                         -0.2262590              -6.1568 (LUMO)
        26                         -0.0026089              -0.0710
        27                          0.1018196               2.7707
        28                          0.1077436               2.9319
        29                          0.1107171               3.0128
        30                          0.1299580               3.5363
        31                          0.1396765               3.8008
        32                          0.1514334               4.1207
        33                          0.1558805               4.2417
        34                          0.1612881               4.3889
        35                          0.1736697               4.7258
       ...                                ...                  ...
        44                          0.6305120              17.1571
      -------------------------------------------------------------
                  HL-Gap            0.1826082 Eh            4.9690 eV
             Fermi-level           -0.3175631 Eh           -8.6413 eV

     #   Z          covCN         q      C6AA      α(0)
     1   6 C        3.753    -0.106    22.587     6.777
     2   6 C        3.803    -0.046    21.400     6.586
     3   6 C        3.805    -0.091    22.239     6.714
     4   6 C        2.714     0.358    20.930     7.489
     5   8 O        0.856    -0.424    22.176     6.314
     6   8 O        1.703    -0.266    18.405     5.792
     7   6 C        3.693     0.076    19.476     6.314
     8   6 C        3.750    -0.113    22.731     6.799
     9   1 H        0.925     0.041     2.430     2.438
    10   1 H        0.925     0.041     2.435     2.440
    11   1 H        0.925     0.040     2.454     2.450
    12   1 H        0.924     0.037     2.490     2.468
    13   1 H        0.924     0.047     2.353     2.399
    14   1 H        0.925     0.067     2.116     2.275
    15   1 H        0.925     0.059     2.212     2.326
    16   1 H        0.924     0.056     2.244     2.342
    17   1 H        0.924     0.061     2.187     2.313
    18   1 H        0.925     0.053     2.282     2.363
    19   1 H        0.925     0.051     2.306     2.375
    20   1 H        0.925     0.059     2.207     2.323

 Mol. C6AA /au·bohr⁶  :       3018.607105
 Mol. C8AA /au·bohr⁸  :      64014.981665
 Mol. α(0) /au        :         81.295841


Wiberg/Mayer (AO) data.
largest (>0.10) Wiberg bond orders for each atom

 ---------------------------------------------------------------------------
     #   Z sym  total        # sym  WBO       # sym  WBO       # sym  WBO
 ---------------------------------------------------------------------------
     1   6 C    3.995 --     2 C    1.018    11 H    0.988    10 H    0.987
                             9 H    0.986
     2   6 C    3.994 --     1 C    1.018     3 C    0.981    12 H    0.979
                            13 H    0.978
     3   6 C    3.994 --     2 C    0.981    15 H    0.974     4 C    0.973
                            14 H    0.964
     4   6 C    3.915 --     5 O    1.736     6 O    1.149     3 C    0.973
     5   8 O    2.019 --     4 C    1.736     6 O    0.174
     6   8 O    2.314 --     4 C    1.149     7 C    0.931     5 O    0.174
     7   6 C    3.926 --     8 C    1.014    16 H    0.973    17 H    0.969
                             6 O    0.931
     8   6 C    3.992 --     7 C    1.014    18 H    0.986    20 H    0.985
                            19 H    0.983
     9   1 H    0.998 --     1 C    0.986
    10   1 H    0.998 --     1 C    0.987
    11   1 H    0.998 --     1 C    0.988
    12   1 H    0.999 --     2 C    0.979
    13   1 H    0.998 --     2 C    0.978
    14   1 H    0.995 --     3 C    0.964
    15   1 H    0.997 --     3 C    0.974
    16   1 H    0.997 --     7 C    0.973
    17   1 H    0.996 --     7 C    0.969
    18   1 H    0.997 --     8 C    0.986
    19   1 H    0.997 --     8 C    0.983
    20   1 H    0.996 --     8 C    0.985
 ---------------------------------------------------------------------------

Topologies differ in total number of bonds
Writing topology from bond orders to xtbtopo.mol

molecular dipole:
                 x           y           z       tot (Debye)
 q only:        0.086      -0.750      -0.364
   full:        0.100      -0.778      -0.468       2.321
molecular quadrupole (traceless):
                xx          xy          yy          xz          yz          zz
 q only:        8.253      -0.569      -5.532       0.372      -3.122      -2.721
  q+dip:        6.815      -1.065      -4.725      -0.250      -3.328      -2.090
   full:        7.296      -0.772      -5.113      -0.084      -4.205      -2.183


           -------------------------------------------------
          | TOTAL ENERGY              -27.115976432208 Eh   |
          | GRADIENT NORM               0.026500227103 Eh/α |
          | HOMO-LUMO GAP               4.969022157057 eV   |
           -------------------------------------------------

------------------------------------------------------------------------
 * finished run on 2025/04/11 at 15:53:54.093     
------------------------------------------------------------------------
 total:
 * wall-time:     0 d,  0 h,  0 min,  0.062 sec
 *  cpu-time:     0 d,  0 h,  0 min,  0.036 sec
 * ratio c/w:     0.580 speedup
 SCF:
 * wall-time:     0 d,  0 h,  0 min,  0.028 sec
 *  cpu-time:     0 d,  0 h,  0 min,  0.023 sec
 * ratio c/w:     0.795 speedup

