 Entering Gaussian System
 *********************************************
 Gaussian 98:
 frequency output generated by the xtb code
 *********************************************
                         Standard orientation:
 --------------------------------------------------------------------
  Center     Atomic     Atomic              Coordinates (Angstroms)
  Number     Number      Type              X           Y           Z
 --------------------------------------------------------------------
    1          6             0        1.947407    1.168376    0.752141
    2          6             0        1.406164    0.268246   -0.345948
    3          6             0        2.468197   -0.676369   -0.884537
    4         16             0        0.003031   -0.747127    0.297809
    5          6             0       -1.409115    0.422880    0.071780
    6          6             0       -1.952128    0.320208   -1.343696
    7          6             0       -2.466980    0.097376    1.113539
    8          1             0        2.748654    1.791341    0.360255
    9          1             0        1.167283    1.816266    1.146457
   10          1             0        2.337375    0.564578    1.568345
   11          1             0        0.988867    0.865258   -1.160639
   12          1             0        2.846660   -1.308308   -0.084241
   13          1             0        3.294155   -0.105922   -1.303107
   14          1             0        2.051509   -1.315918   -1.658772
   15          1             0       -0.998845    1.419241    0.254101
   16          1             0       -1.174915    0.526943   -2.076526
   17          1             0       -2.334809   -0.681996   -1.522516
   18          1             0       -2.759097    1.036182   -1.484547
   19          1             0       -3.298387    0.793247    1.027870
   20          1             0       -2.049173    0.166701    2.114895
   21          1             0       -2.838010   -0.914328    0.965721
 --------------------------------------------------------------------
     1 basis functions        1 primitive gaussians
     1 alpha electrons        1 beta electrons
 
 Harmonic frequencies (cm**-1), IR intensities (km*mol⁻¹),
 Raman scattering activities (A**4/amu), Raman depolarization ratios,
 reduced masses (AMU), force constants (mDyne/A) and normal coordinates:
                      1                      2                      3
                        a                      a                      a 
 Frequencies --    45.9870                52.1744               136.4874
 Red. masses --    14.9178                 8.3127                12.9838
 Frc consts  --     0.0000                 0.0000                 0.0000
 IR Inten    --     2.5730                 0.0066                 1.1740
 Raman Activ --     0.0000                 0.0000                 0.0000
 Depolar     --     0.0000                 0.0000                 0.0000
 Atom AN      X      Y      Z        X      Y      Z        X      Y      Z
   1   6     0.27  -0.06  -0.05    -0.13   0.24  -0.35     0.32  -0.06   0.06
   2   6    -0.05   0.04   0.02    -0.01  -0.10  -0.13     0.19   0.08   0.01
   3   6    -0.25   0.00  -0.31     0.08  -0.21   0.24     0.01  -0.22   0.17
   4  16     0.03   0.20   0.49     0.00  -0.03   0.01    -0.00   0.44  -0.18
   5   6    -0.05  -0.02   0.04     0.01   0.02   0.16    -0.19   0.05  -0.06
   6   6     0.27   0.01  -0.08     0.13   0.41   0.09    -0.32  -0.08  -0.00
   7   6    -0.25  -0.21  -0.22    -0.08  -0.32  -0.03    -0.01  -0.28   0.03
   8   1     0.06  -0.02  -0.06    -0.03   0.04  -0.13     0.18  -0.11   0.05
   9   1     0.11  -0.02   0.05    -0.05   0.10  -0.18     0.14   0.07  -0.04
  10   1     0.13  -0.04  -0.05    -0.05   0.14  -0.04    -0.02  -0.05   0.05
  11   1    -0.06   0.04   0.05     0.01  -0.10  -0.10     0.11   0.05  -0.01
  12   1    -0.03  -0.02  -0.13     0.01   0.01   0.13    -0.11  -0.11   0.06
  13   1    -0.09  -0.01  -0.14     0.03  -0.09   0.04     0.08  -0.14   0.11
  14   1    -0.14   0.02  -0.07     0.05  -0.13   0.11    -0.01  -0.02   0.01
  15   1    -0.06   0.01   0.06    -0.01  -0.01   0.14    -0.11   0.04  -0.02
  16   1     0.11   0.04   0.02     0.05   0.19   0.06    -0.14   0.08  -0.02
  17   1     0.12  -0.01  -0.07     0.05   0.13  -0.07     0.02  -0.07  -0.00
  18   1     0.06  -0.02  -0.06     0.03   0.12   0.07    -0.18  -0.12   0.04
  19   1    -0.09  -0.09  -0.11    -0.03  -0.09   0.03    -0.08  -0.17   0.02
  20   1    -0.14  -0.07  -0.04    -0.05  -0.17   0.01     0.01  -0.02   0.00
  21   1    -0.03  -0.07  -0.11    -0.01  -0.08  -0.10     0.11  -0.12   0.03
                      4                      5                      6
                        a                      a                      a 
 Frequencies --   191.9254               193.4329               221.3638
 Red. masses --     1.2278                 1.2680                 1.9535
 Frc consts  --     0.0000                 0.0000                 0.0000
 IR Inten    --     0.0011                 0.0005                 0.3000
 Raman Activ --     0.0000                 0.0000                 0.0000
 Depolar     --     0.0000                 0.0000                 0.0000
 Atom AN      X      Y      Z        X      Y      Z        X      Y      Z
   1   6    -0.01  -0.05   0.06    -0.01  -0.03   0.04    -0.08   0.06  -0.03
   2   6    -0.00   0.00   0.01     0.00  -0.00   0.01    -0.05   0.07  -0.06
   3   6     0.02   0.07  -0.06     0.02   0.05  -0.04    -0.11   0.01  -0.06
   4  16    -0.01  -0.01  -0.01     0.00  -0.02   0.01     0.09  -0.01   0.03
   5   6    -0.00  -0.00   0.01    -0.00  -0.01  -0.01     0.03  -0.05   0.05
   6   6    -0.01   0.05   0.00     0.01  -0.08  -0.01     0.11  -0.07   0.03
   7   6     0.01  -0.05   0.00    -0.02   0.09  -0.00    -0.02   0.00   0.02
   8   1     0.24  -0.26   0.12     0.14  -0.16   0.07     0.21  -0.22   0.09
   9   1     0.08   0.23  -0.22     0.05   0.14  -0.13     0.05   0.25  -0.25
  10   1    -0.33  -0.03   0.16    -0.20  -0.02   0.10    -0.34   0.01   0.14
  11   1    -0.00   0.01   0.01    -0.00  -0.00   0.01    -0.01   0.03  -0.01
  12   1     0.25   0.23   0.03     0.17   0.15   0.02    -0.30  -0.25  -0.09
  13   1    -0.15   0.04  -0.31    -0.10   0.03  -0.20     0.15  -0.02   0.31
  14   1    -0.08  -0.19   0.20    -0.05  -0.12   0.13     0.05   0.25  -0.26
  15   1    -0.00  -0.00   0.01     0.00  -0.00  -0.01     0.01  -0.02   0.02
  16   1     0.05  -0.20  -0.00    -0.08   0.31   0.00     0.08  -0.17   0.02
  17   1    -0.21   0.08   0.06     0.32  -0.13  -0.10    -0.09   0.02   0.05
  18   1     0.15   0.17  -0.06    -0.23  -0.27   0.09     0.13   0.08  -0.06
  19   1    -0.09  -0.15  -0.12     0.16   0.25   0.20     0.08   0.11   0.09
  20   1    -0.05   0.17   0.01     0.08  -0.28  -0.02     0.02  -0.15   0.00
  21   1     0.16  -0.09   0.11    -0.26   0.15  -0.19    -0.13   0.06  -0.09
                      7                      8                      9
                        a                      a                      a 
 Frequencies --   222.1216               273.3172               298.2197
 Red. masses --     2.8502                 8.6783                14.7894
 Frc consts  --     0.0000                 0.0000                 0.0000
 IR Inten    --     0.4436                 0.4871                 4.9834
 Raman Activ --     0.0000                 0.0000                 0.0000
 Depolar     --     0.0000                 0.0000                 0.0000
 Atom AN      X      Y      Z        X      Y      Z        X      Y      Z
   1   6    -0.22  -0.04   0.01    -0.19   0.07   0.14     0.24   0.20   0.01
   2   6    -0.09  -0.04  -0.06    -0.11   0.13   0.05    -0.03   0.22   0.11
   3   6    -0.07  -0.00  -0.07    -0.41  -0.19   0.05    -0.25  -0.04   0.14
   4  16    -0.04  -0.05   0.01    -0.00   0.17  -0.07     0.05  -0.19  -0.48
   5   6     0.10   0.08   0.04     0.11   0.06  -0.12    -0.03  -0.09   0.23
   6   6     0.21   0.02   0.00     0.19  -0.04  -0.15     0.24  -0.14   0.14
   7   6     0.13   0.06   0.06     0.41  -0.17   0.10    -0.26   0.13   0.07
   8   1     0.01  -0.07   0.07    -0.09   0.08   0.06     0.06   0.03  -0.07
   9   1    -0.06   0.05  -0.09    -0.09  -0.04   0.07     0.12   0.09   0.04
  10   1    -0.18  -0.02   0.06    -0.02   0.01   0.01     0.11   0.06  -0.02
  11   1    -0.02  -0.01  -0.02    -0.01   0.05   0.01     0.01   0.08   0.03
  12   1    -0.10  -0.09  -0.05    -0.10  -0.01   0.04    -0.08   0.02   0.07
  13   1     0.03   0.00   0.09    -0.11  -0.16  -0.12    -0.05  -0.10  -0.04
  14   1     0.01   0.08  -0.11    -0.24  -0.10   0.11    -0.15  -0.04   0.11
  15   1     0.02   0.02   0.01     0.01   0.03  -0.04     0.01  -0.04   0.08
  16   1    -0.00   0.32   0.03     0.09  -0.08  -0.02     0.12  -0.03   0.09
  17   1     0.37  -0.10  -0.10     0.02  -0.00  -0.01     0.11  -0.06   0.03
  18   1    -0.16  -0.23   0.07     0.09   0.02  -0.10     0.06  -0.07  -0.03
  19   1    -0.13  -0.21  -0.20     0.11  -0.04   0.19    -0.05   0.05  -0.10
  20   1    -0.04   0.36   0.03     0.24  -0.15  -0.01    -0.15   0.11   0.05
  21   1     0.29  -0.11   0.24     0.10  -0.04  -0.02    -0.08   0.03   0.06
                     10                     11                     12
                        a                      a                      a 
 Frequencies --   307.3207               344.8738               423.4421
 Red. masses --    11.9194                13.7245                 8.1052
 Frc consts  --     0.0000                 0.0000                 0.0000
 IR Inten    --     0.5352                 0.8554                 1.6742
 Raman Activ --     0.0000                 0.0000                 0.0000
 Depolar     --     0.0000                 0.0000                 0.0000
 Atom AN      X      Y      Z        X      Y      Z        X      Y      Z
   1   6    -0.26  -0.26   0.03     0.25  -0.06  -0.16     0.05  -0.23  -0.12
   2   6     0.09  -0.05  -0.28    -0.14  -0.08   0.06    -0.32   0.11  -0.16
   3   6     0.19  -0.07  -0.07     0.15   0.23   0.11    -0.13   0.18   0.25
   4  16    -0.00   0.37  -0.15    -0.51  -0.02  -0.05     0.00  -0.01   0.01
   5   6    -0.09   0.16   0.24    -0.14   0.10  -0.02     0.32   0.19   0.04
   6   6     0.26  -0.21   0.15     0.25  -0.06  -0.15    -0.05  -0.08   0.24
   7   6    -0.20  -0.01   0.10     0.15  -0.09   0.23     0.13  -0.04  -0.30
   8   1    -0.10   0.03   0.13     0.09  -0.10  -0.15     0.05  -0.12  -0.04
   9   1    -0.15  -0.18   0.04     0.16   0.06  -0.01     0.11  -0.02   0.08
  10   1    -0.08  -0.14  -0.04     0.10  -0.01  -0.05     0.02  -0.17  -0.12
  11   1     0.07  -0.00  -0.10    -0.05  -0.03   0.02    -0.10   0.03  -0.04
  12   1     0.07   0.04   0.02     0.06   0.07   0.03    -0.09   0.13   0.16
  13   1     0.04  -0.01  -0.04     0.01   0.17   0.11    -0.02   0.05   0.12
  14   1     0.09  -0.08   0.01     0.16   0.06  -0.02     0.07  -0.03   0.08
  15   1    -0.07   0.06   0.07    -0.05   0.03  -0.00     0.10   0.05   0.01
  16   1     0.15  -0.16   0.09     0.16  -0.05   0.04    -0.11  -0.07  -0.05
  17   1     0.08  -0.08   0.12     0.10  -0.03  -0.05    -0.02  -0.05   0.20
  18   1     0.10  -0.06  -0.12     0.09  -0.03  -0.17    -0.05  -0.06   0.11
  19   1    -0.04   0.02   0.04     0.01  -0.05   0.19     0.02  -0.04  -0.12
  20   1    -0.09  -0.07   0.05     0.16  -0.06   0.02    -0.07  -0.08  -0.04
  21   1    -0.07   0.01  -0.04     0.06  -0.03   0.07     0.09  -0.01  -0.21
                     13                     14                     15
                        a                      a                      a 
 Frequencies --   426.1394               637.3462               661.3134
 Red. masses --    10.2263                16.7400                15.1324
 Frc consts  --     0.0000                 0.0000                 0.0000
 IR Inten    --     0.6179                 1.1146                 0.7362
 Raman Activ --     0.0000                 0.0000                 0.0000
 Depolar     --     0.0000                 0.0000                 0.0000
 Atom AN      X      Y      Z        X      Y      Z        X      Y      Z
   1   6     0.01  -0.24  -0.08     0.07   0.10   0.05     0.06   0.09   0.04
   2   6    -0.18   0.20  -0.29     0.26   0.29  -0.25     0.21   0.33  -0.27
   3   6    -0.07   0.09   0.19     0.11  -0.03  -0.07     0.05  -0.00  -0.04
   4  16     0.30   0.05   0.11    -0.56   0.04   0.11     0.00  -0.49   0.20
   5   6    -0.18  -0.35  -0.08     0.26  -0.38   0.02    -0.22   0.42  -0.02
   6   6     0.01   0.12  -0.22     0.07  -0.04   0.10    -0.06   0.04  -0.09
   7   6    -0.07   0.07   0.21     0.11  -0.03  -0.07    -0.05   0.03   0.03
   8   1     0.04  -0.07   0.05     0.04   0.08   0.14     0.05   0.07   0.15
   9   1     0.06  -0.07   0.09    -0.02  -0.03   0.03    -0.01  -0.03   0.04
  10   1    -0.02  -0.21  -0.11    -0.04  -0.05  -0.02    -0.05  -0.08  -0.03
  11   1    -0.04   0.06  -0.08     0.07   0.08  -0.06     0.00   0.07  -0.05
  12   1    -0.10   0.12   0.17    -0.05   0.01   0.04    -0.10   0.03   0.07
  13   1     0.02  -0.02   0.08     0.10  -0.12  -0.05     0.11  -0.16  -0.04
  14   1     0.06  -0.07   0.09    -0.02  -0.03   0.02    -0.04  -0.04   0.05
  15   1    -0.04  -0.10  -0.02     0.07  -0.10   0.01    -0.00   0.09  -0.01
  16   1     0.05   0.12   0.01    -0.02   0.04   0.00     0.01  -0.05  -0.01
  17   1    -0.02   0.08  -0.23    -0.04   0.02  -0.05     0.05  -0.03   0.08
  18   1     0.04   0.09  -0.01     0.04   0.04   0.16    -0.05  -0.05  -0.16
  19   1     0.02   0.07   0.05     0.10   0.06  -0.12    -0.11  -0.09   0.14
  20   1     0.06   0.11   0.02    -0.02   0.04  -0.00     0.04  -0.06  -0.01
  21   1    -0.10   0.03   0.21    -0.05   0.01   0.04     0.10  -0.03  -0.08
                     16                     17                     18
                        a                      a                      a 
 Frequencies --   927.4979               928.4672               942.6509
 Red. masses --     8.1919                 7.9022                 2.4579
 Frc consts  --     0.0000                 0.0000                 0.0000
 IR Inten    --     0.4258                 2.2098                 1.5673
 Raman Activ --     0.0000                 0.0000                 0.0000
 Depolar     --     0.0000                 0.0000                 0.0000
 Atom AN      X      Y      Z        X      Y      Z        X      Y      Z
   1   6    -0.02  -0.26  -0.23     0.00  -0.26  -0.22    -0.11   0.10  -0.09
   2   6     0.31   0.02   0.09     0.29   0.02   0.08    -0.00   0.06   0.06
   3   6    -0.14   0.25   0.18    -0.14   0.23   0.16     0.08  -0.02   0.15
   4  16    -0.04   0.00   0.01     0.00  -0.04   0.02    -0.01  -0.00  -0.01
   5   6     0.29   0.05   0.07    -0.30  -0.04  -0.07    -0.00  -0.01   0.08
   6   6    -0.02   0.03  -0.33     0.00  -0.04   0.35    -0.11  -0.13  -0.00
   7   6    -0.13  -0.05   0.29     0.14   0.06  -0.28     0.08   0.12   0.09
   8   1    -0.06   0.01  -0.05    -0.06   0.02  -0.05     0.08  -0.06   0.05
   9   1    -0.13  -0.13  -0.22    -0.14  -0.14  -0.23     0.12   0.06   0.21
  10   1    -0.02   0.05   0.03    -0.02   0.07   0.05    -0.05  -0.24  -0.20
  11   1     0.10   0.03   0.04     0.11   0.06   0.05     0.09  -0.18  -0.18
  12   1    -0.03  -0.02  -0.02    -0.04  -0.00  -0.01     0.17  -0.19  -0.19
  13   1    -0.03  -0.01  -0.04    -0.02  -0.01  -0.02    -0.07   0.03  -0.09
  14   1    -0.22   0.16   0.07    -0.18   0.13   0.06    -0.20   0.18  -0.00
  15   1     0.09   0.00   0.04    -0.11   0.01  -0.08     0.09   0.01  -0.25
  16   1    -0.12  -0.05  -0.23     0.15   0.06   0.27     0.12   0.10   0.19
  17   1    -0.02  -0.01   0.05     0.02   0.02  -0.09    -0.05   0.03  -0.31
  18   1    -0.06  -0.04  -0.03     0.07   0.05   0.03     0.07   0.08  -0.01
  19   1    -0.03  -0.02  -0.03     0.03   0.01   0.02    -0.07  -0.08  -0.04
  20   1    -0.21  -0.07   0.15     0.19   0.06  -0.14    -0.20  -0.14   0.12
  21   1    -0.03  -0.00  -0.03     0.04   0.00   0.01     0.17   0.01  -0.27
                     19                     20                     21
                        a                      a                      a 
 Frequencies --   946.0873               974.5247               976.1746
 Red. masses --     2.7271                 3.9442                 3.8708
 Frc consts  --     0.0000                 0.0000                 0.0000
 IR Inten    --     0.0295                 0.3435                 0.1454
 Raman Activ --     0.0000                 0.0000                 0.0000
 Depolar     --     0.0000                 0.0000                 0.0000
 Atom AN      X      Y      Z        X      Y      Z        X      Y      Z
   1   6     0.12  -0.06   0.12     0.21   0.11  -0.03     0.20   0.13  -0.04
   2   6    -0.04  -0.07  -0.07     0.04  -0.08  -0.07     0.04  -0.08  -0.07
   3   6    -0.08  -0.00  -0.17    -0.22  -0.05   0.08    -0.22  -0.05   0.09
   4  16    -0.00   0.01  -0.00    -0.00  -0.01  -0.03     0.00  -0.03   0.01
   5   6     0.04  -0.00   0.10     0.04   0.01  -0.11    -0.04  -0.01   0.10
   6   6    -0.12  -0.12  -0.04     0.21  -0.10   0.05    -0.20   0.12  -0.05
   7   6     0.08   0.11   0.12    -0.23   0.09   0.02     0.22  -0.10  -0.03
   8   1    -0.06   0.07  -0.04     0.07   0.19   0.29     0.08   0.20   0.32
   9   1    -0.11  -0.05  -0.18    -0.12  -0.14  -0.07    -0.11  -0.14  -0.05
  10   1     0.05   0.23   0.20    -0.10  -0.05   0.01    -0.11  -0.08  -0.01
  11   1    -0.05   0.18   0.15     0.04  -0.09  -0.09     0.03  -0.11  -0.09
  12   1    -0.16   0.20   0.19     0.11   0.03  -0.03     0.11   0.02  -0.04
  13   1     0.05  -0.00   0.10    -0.20   0.27   0.11    -0.20   0.27   0.11
  14   1     0.23  -0.20  -0.01     0.13  -0.01  -0.08     0.12  -0.01  -0.08
  15   1     0.05   0.03  -0.24     0.04   0.01  -0.13    -0.02  -0.02   0.14
  16   1     0.11   0.09   0.17    -0.12   0.05  -0.15     0.11  -0.06   0.13
  17   1    -0.05   0.03  -0.30    -0.10   0.04  -0.03     0.11  -0.05   0.06
  18   1     0.06   0.07  -0.02     0.07   0.06   0.35    -0.08  -0.07  -0.36
  19   1    -0.05  -0.07  -0.07    -0.21  -0.12   0.27     0.20   0.12  -0.25
  20   1    -0.23  -0.14   0.15     0.14  -0.05  -0.07    -0.12   0.05   0.06
  21   1     0.16   0.02  -0.27     0.11  -0.04  -0.01    -0.11   0.04   0.02
                     22                     23                     24
                        a                      a                      a 
 Frequencies --  1053.1655              1072.3162              1137.9532
 Red. masses --     3.2741                 4.1942                 7.9947
 Frc consts  --     0.0000                 0.0000                 0.0000
 IR Inten    --     7.7821                 5.4383                 6.4919
 Raman Activ --     0.0000                 0.0000                 0.0000
 Depolar     --     0.0000                 0.0000                 0.0000
 Atom AN      X      Y      Z        X      Y      Z        X      Y      Z
   1   6    -0.08  -0.09   0.12    -0.07  -0.06   0.14     0.03   0.09   0.23
   2   6     0.01   0.13  -0.15     0.02   0.15  -0.19     0.09  -0.33  -0.26
   3   6    -0.07  -0.13   0.07    -0.09  -0.13   0.09    -0.13   0.23   0.03
   4  16    -0.01   0.02   0.05     0.00  -0.13   0.05     0.00   0.01   0.02
   5   6     0.02  -0.20  -0.02    -0.02   0.24   0.04     0.09   0.06  -0.41
   6   6    -0.08   0.15   0.02     0.07  -0.14  -0.06     0.03   0.09   0.23
   7   6    -0.08   0.14  -0.04     0.09  -0.15   0.02    -0.13  -0.15   0.18
   8   1    -0.08  -0.09  -0.22    -0.07  -0.10  -0.21     0.01  -0.04  -0.05
   9   1     0.06   0.10  -0.02     0.06   0.10   0.00     0.07   0.09   0.08
  10   1     0.11   0.14   0.08     0.11   0.12   0.07     0.08   0.08   0.07
  11   1     0.35   0.20  -0.10     0.33   0.17  -0.12     0.10  -0.21  -0.20
  12   1     0.16  -0.04  -0.08     0.17  -0.05  -0.09    -0.14   0.06   0.06
  13   1    -0.16   0.20   0.04    -0.16   0.20   0.04     0.03  -0.06  -0.02
  14   1     0.09   0.02  -0.08     0.08   0.03  -0.08    -0.11   0.05   0.06
  15   1     0.35  -0.21   0.06    -0.33   0.20  -0.03     0.10   0.02  -0.29
  16   1     0.06  -0.08   0.06    -0.06   0.07  -0.07     0.07  -0.01   0.12
  17   1     0.11  -0.04   0.16    -0.11   0.04  -0.14     0.08  -0.01   0.10
  18   1    -0.08  -0.08  -0.23     0.06   0.07   0.22     0.01  -0.01  -0.06
  19   1    -0.16  -0.11   0.17     0.16   0.12  -0.16     0.03   0.03  -0.05
  20   1     0.09  -0.07  -0.05    -0.08   0.08   0.04    -0.11   0.01   0.07
  21   1     0.16  -0.02  -0.08    -0.17   0.02   0.10    -0.14  -0.01   0.08
                     25                     26                     27
                        a                      a                      a 
 Frequencies --  1147.2339              1159.1205              1165.6736
 Red. masses --     7.9731                 6.7913                 7.0577
 Frc consts  --     0.0000                 0.0000                 0.0000
 IR Inten    --     0.6330                55.2144                 4.3922
 Raman Activ --     0.0000                 0.0000                 0.0000
 Depolar     --     0.0000                 0.0000                 0.0000
 Atom AN      X      Y      Z        X      Y      Z        X      Y      Z
   1   6    -0.08  -0.06  -0.24     0.21  -0.05   0.07     0.20  -0.06   0.01
   2   6    -0.01   0.31   0.30    -0.37   0.01  -0.14    -0.40   0.09  -0.07
   3   6     0.06  -0.22  -0.07     0.20   0.01   0.11     0.22  -0.05   0.10
   4  16     0.00  -0.03   0.01     0.01   0.00   0.01     0.00  -0.02   0.01
   5   6     0.01   0.02  -0.43    -0.37  -0.10  -0.10     0.40   0.11  -0.01
   6   6     0.08   0.12   0.22     0.21   0.08   0.02    -0.19  -0.05   0.04
   7   6    -0.06  -0.12   0.20     0.20   0.07   0.09    -0.22  -0.10  -0.04
   8   1     0.01  -0.01   0.02    -0.03   0.13   0.08    -0.03   0.14   0.10
   9   1    -0.04  -0.06  -0.03    -0.11  -0.09  -0.15    -0.12  -0.11  -0.16
  10   1    -0.08  -0.12  -0.11    -0.01   0.14   0.15    -0.03   0.11   0.13
  11   1    -0.04   0.22   0.20     0.03   0.06  -0.06     0.02   0.13  -0.01
  12   1     0.10  -0.00  -0.01     0.07  -0.16  -0.11     0.09  -0.16  -0.12
  13   1    -0.03   0.07   0.06     0.04  -0.10  -0.13     0.04  -0.09  -0.12
  14   1     0.16  -0.09  -0.07    -0.18   0.12   0.04    -0.14   0.10   0.02
  15   1     0.04   0.02  -0.29     0.03  -0.09  -0.00    -0.02   0.10  -0.08
  16   1     0.04  -0.03   0.06    -0.11  -0.04  -0.17     0.12   0.03   0.19
  17   1     0.08  -0.01   0.16    -0.01   0.00   0.21     0.03  -0.01  -0.17
  18   1    -0.01  -0.02  -0.01    -0.03  -0.04   0.15     0.03   0.03  -0.16
  19   1     0.03   0.02  -0.09     0.04  -0.01  -0.16    -0.04   0.01   0.15
  20   1    -0.16  -0.02   0.11    -0.18  -0.06   0.12     0.13   0.06  -0.09
  21   1    -0.11   0.01   0.01     0.07   0.04  -0.19    -0.09  -0.04   0.19
                     28                     29                     30
                        a                      a                      a 
 Frequencies --  1224.5736              1239.7799              1290.4853
 Red. masses --     3.8012                 3.6524                 4.4809
 Frc consts  --     0.0000                 0.0000                 0.0000
 IR Inten    --    66.7008                21.1334                14.5590
 Raman Activ --     0.0000                 0.0000                 0.0000
 Depolar     --     0.0000                 0.0000                 0.0000
 Atom AN      X      Y      Z        X      Y      Z        X      Y      Z
   1   6    -0.00  -0.07   0.14     0.00  -0.12   0.10    -0.06   0.12  -0.04
   2   6     0.15   0.15  -0.18     0.13   0.19  -0.13     0.07  -0.26  -0.22
   3   6    -0.01  -0.09   0.12     0.01  -0.11   0.10     0.02  -0.01   0.13
   4  16    -0.00  -0.01  -0.02    -0.00   0.05  -0.02     0.00   0.00   0.01
   5   6     0.15  -0.24  -0.03    -0.13   0.23  -0.04     0.07   0.04  -0.34
   6   6    -0.00   0.15   0.05     0.00  -0.15   0.01    -0.05  -0.11   0.05
   7   6    -0.02   0.15   0.03    -0.01  -0.15   0.00     0.02   0.09   0.09
   8   1    -0.04  -0.06  -0.11    -0.06  -0.01  -0.09     0.06   0.00   0.09
   9   1     0.00   0.04  -0.06    -0.00   0.03  -0.07     0.07   0.05   0.12
  10   1     0.08   0.09   0.07     0.05   0.10   0.09     0.00  -0.03  -0.06
  11   1    -0.49  -0.21   0.05    -0.51  -0.20   0.07    -0.10   0.39   0.34
  12   1     0.11  -0.07  -0.06     0.11  -0.06  -0.06     0.02  -0.05  -0.02
  13   1    -0.09   0.08  -0.00    -0.08   0.09   0.01    -0.07   0.06  -0.03
  14   1    -0.01   0.07  -0.04    -0.00   0.06  -0.04    -0.10   0.09   0.01
  15   1    -0.49   0.19  -0.11     0.51  -0.19   0.09    -0.10  -0.05   0.51
  16   1     0.00  -0.07  -0.02     0.00   0.07   0.03     0.07   0.04   0.12
  17   1     0.08  -0.01   0.11    -0.05   0.01  -0.14     0.00  -0.02  -0.06
  18   1    -0.04  -0.04  -0.12     0.06   0.05   0.07     0.06   0.06   0.06
  19   1    -0.09  -0.06   0.06     0.08   0.06  -0.06    -0.07  -0.06   0.02
  20   1    -0.01  -0.08   0.02     0.00   0.07  -0.01    -0.10  -0.06   0.07
  21   1     0.11   0.00  -0.09    -0.11  -0.01   0.08     0.02   0.02  -0.05
                     31                     32                     33
                        a                      a                      a 
 Frequencies --  1298.6463              1399.6473              1399.8132
 Red. masses --     4.3348                 3.2263                 3.2531
 Frc consts  --     0.0000                 0.0000                 0.0000
 IR Inten    --     3.3599                 9.7086                 2.6465
 Raman Activ --     0.0000                 0.0000                 0.0000
 Depolar     --     0.0000                 0.0000                 0.0000
 Atom AN      X      Y      Z        X      Y      Z        X      Y      Z
   1   6    -0.05   0.11  -0.04    -0.05  -0.10  -0.09     0.09   0.17   0.17
   2   6     0.08  -0.25  -0.22    -0.01   0.04   0.02     0.02  -0.05  -0.05
   3   6     0.03  -0.02   0.13     0.13  -0.10  -0.08    -0.19   0.16   0.13
   4  16    -0.00   0.01  -0.00     0.00   0.00  -0.00    -0.00   0.01  -0.00
   5   6    -0.08  -0.03   0.33    -0.01  -0.01   0.07    -0.01  -0.00   0.05
   6   6     0.05   0.11  -0.05    -0.09   0.01  -0.23    -0.06   0.00  -0.15
   7   6    -0.03  -0.10  -0.08     0.20   0.03  -0.20     0.11   0.01  -0.12
   8   1     0.06  -0.01   0.08     0.01   0.06   0.15    -0.02  -0.12  -0.28
   9   1     0.06   0.04   0.11     0.11   0.07   0.09    -0.20  -0.13  -0.15
  10   1     0.00  -0.03  -0.05     0.06   0.15   0.08    -0.10  -0.26  -0.14
  11   1    -0.13   0.38   0.35    -0.01  -0.05  -0.03    -0.04   0.06   0.06
  12   1     0.02  -0.05  -0.02    -0.13   0.08   0.13     0.21  -0.13  -0.21
  13   1    -0.08   0.07  -0.03    -0.09   0.18   0.06     0.13  -0.28  -0.09
  14   1    -0.10   0.09   0.01    -0.19   0.07   0.03     0.29  -0.10  -0.05
  15   1     0.13   0.04  -0.52     0.00   0.01  -0.09     0.04  -0.01  -0.05
  16   1    -0.06  -0.05  -0.11     0.19   0.02   0.19     0.13   0.01   0.13
  17   1    -0.00   0.02   0.06     0.10  -0.09   0.28     0.07  -0.06   0.17
  18   1    -0.06  -0.06  -0.05     0.02   0.10   0.27     0.02   0.06   0.19
  19   1     0.07   0.07  -0.02    -0.13  -0.15   0.27    -0.07  -0.08   0.15
  20   1     0.10   0.06  -0.07    -0.30  -0.04   0.11    -0.16  -0.02   0.06
  21   1    -0.02  -0.03   0.05    -0.21   0.05   0.24    -0.12   0.03   0.14
                     34                     35                     36
                        a                      a                      a 
 Frequencies --  1410.5480              1412.2764              1476.0280
 Red. masses --     3.0655                 3.0200                 1.5429
 Frc consts  --     0.0000                 0.0000                 0.0000
 IR Inten    --     0.0237                 7.9365                 3.0801
 Raman Activ --     0.0000                 0.0000                 0.0000
 Depolar     --     0.0000                 0.0000                 0.0000
 Atom AN      X      Y      Z        X      Y      Z        X      Y      Z
   1   6     0.10   0.13   0.15     0.10   0.14   0.15    -0.06   0.06  -0.03
   2   6    -0.02   0.00  -0.00    -0.01  -0.01  -0.00    -0.01   0.02   0.04
   3   6     0.16  -0.12  -0.07     0.15  -0.11  -0.07     0.07  -0.02   0.12
   4  16     0.00  -0.01   0.00    -0.00   0.00   0.00    -0.00   0.00  -0.00
   5   6     0.02   0.00   0.00    -0.01   0.01  -0.01    -0.00   0.01   0.04
   6   6    -0.10  -0.01  -0.19     0.10   0.01   0.21    -0.05  -0.05   0.02
   7   6    -0.16  -0.04   0.14     0.15   0.03  -0.13     0.05   0.08   0.06
   8   1    -0.05  -0.08  -0.26    -0.05  -0.09  -0.27     0.19  -0.21   0.06
   9   1    -0.17  -0.11  -0.15    -0.18  -0.11  -0.15    -0.12  -0.16   0.03
  10   1    -0.11  -0.23  -0.11    -0.12  -0.24  -0.11     0.15   0.10  -0.00
  11   1     0.00   0.00  -0.01     0.02   0.02   0.00     0.02  -0.02  -0.02
  12   1    -0.18   0.08   0.16    -0.16   0.08   0.15    -0.27  -0.04   0.11
  13   1    -0.12   0.23   0.05    -0.11   0.21   0.04    -0.20  -0.01  -0.41
  14   1    -0.23   0.09   0.04    -0.21   0.08   0.04     0.23   0.11  -0.20
  15   1    -0.00   0.01   0.01     0.02  -0.01   0.02     0.02  -0.00  -0.03
  16   1     0.16   0.03   0.17    -0.18  -0.02  -0.19    -0.10   0.11  -0.07
  17   1     0.11  -0.09   0.23    -0.12   0.10  -0.25     0.13  -0.07   0.05
  18   1     0.05   0.11   0.23    -0.05  -0.12  -0.26     0.16   0.17  -0.08
  19   1     0.12   0.14  -0.19    -0.11  -0.13   0.18    -0.16  -0.23  -0.25
  20   1     0.23   0.04  -0.09    -0.22  -0.03   0.09     0.19  -0.18  -0.06
  21   1     0.18  -0.05  -0.18    -0.17   0.05   0.17    -0.22   0.08   0.04
                     37                     38                     39
                        a                      a                      a 
 Frequencies --  1476.2435              1484.4834              1485.4880
 Red. masses --     1.5385                 1.5838                 1.5650
 Frc consts  --     0.0000                 0.0000                 0.0000
 IR Inten    --     0.0367                 0.5074                 2.6803
 Raman Activ --     0.0000                 0.0000                 0.0000
 Depolar     --     0.0000                 0.0000                 0.0000
 Atom AN      X      Y      Z        X      Y      Z        X      Y      Z
   1   6     0.05  -0.05   0.02    -0.06  -0.06   0.09    -0.11   0.05   0.06
   2   6     0.00  -0.03  -0.03     0.01  -0.00   0.02    -0.03   0.02  -0.01
   3   6    -0.06   0.01  -0.10     0.06   0.10  -0.00     0.03   0.06  -0.06
   4  16    -0.00  -0.00   0.00     0.00  -0.00  -0.00    -0.00  -0.00   0.00
   5   6    -0.00   0.00   0.05     0.01   0.01   0.01     0.02   0.02  -0.01
   6   6    -0.06  -0.06   0.02    -0.05   0.10   0.02     0.10  -0.02  -0.06
   7   6     0.07   0.09   0.08     0.06  -0.06   0.06    -0.03   0.08  -0.01
   8   1    -0.15   0.17  -0.05    -0.05   0.13   0.12     0.22  -0.19   0.17
   9   1     0.10   0.13  -0.03     0.05   0.23  -0.28    -0.15  -0.04  -0.20
  10   1    -0.11  -0.09  -0.00     0.21  -0.12  -0.18     0.38   0.04  -0.16
  11   1    -0.00   0.03   0.02     0.00   0.00   0.00    -0.02  -0.00  -0.00
  12   1     0.24   0.05  -0.09    -0.22  -0.26  -0.11    -0.01  -0.15  -0.12
  13   1     0.17   0.00   0.35    -0.11   0.13  -0.06     0.03   0.10   0.18
  14   1    -0.19  -0.08   0.16     0.07  -0.23   0.16    -0.09  -0.20   0.21
  15   1     0.01   0.01  -0.05     0.00   0.00   0.00     0.02  -0.00   0.00
  16   1    -0.12   0.14  -0.08     0.06  -0.34  -0.03     0.11   0.16   0.15
  17   1     0.14  -0.07   0.07     0.18  -0.03  -0.21    -0.34   0.11   0.11
  18   1     0.18   0.19  -0.10    -0.06  -0.02   0.17    -0.17  -0.20  -0.02
  19   1    -0.21  -0.29  -0.31    -0.10  -0.13   0.03    -0.00  -0.01  -0.17
  20   1     0.23  -0.20  -0.07     0.07   0.25  -0.04     0.06  -0.28  -0.01
  21   1    -0.28   0.11   0.04    -0.21   0.11  -0.24     0.04  -0.04   0.20
                     40                     41                     42
                        a                      a                      a 
 Frequencies --  1485.8073              1487.4948              1495.5704
 Red. masses --     1.5413                 1.5303                 1.5714
 Frc consts  --     0.0000                 0.0000                 0.0000
 IR Inten    --     3.2395                 1.6609                 1.0211
 Raman Activ --     0.0000                 0.0000                 0.0000
 Depolar     --     0.0000                 0.0000                 0.0000
 Atom AN      X      Y      Z        X      Y      Z        X      Y      Z
   1   6    -0.08   0.08   0.01    -0.01   0.10  -0.06     0.06   0.03  -0.09
   2   6    -0.03   0.02  -0.02    -0.02   0.01  -0.02     0.04   0.03  -0.02
   3   6    -0.01   0.01  -0.07    -0.05  -0.07  -0.04     0.05   0.10  -0.02
   4  16    -0.00   0.00   0.00     0.00   0.00  -0.00    -0.00  -0.00   0.00
   5   6    -0.03  -0.03   0.00     0.02   0.02   0.01    -0.03   0.03  -0.01
   6   6    -0.10  -0.05   0.07     0.01   0.11  -0.02    -0.05   0.07   0.04
   7   6    -0.01  -0.07  -0.04     0.05  -0.02   0.08    -0.04   0.08  -0.05
   8   1     0.25  -0.26   0.11     0.20  -0.27  -0.03    -0.00  -0.07  -0.14
   9   1    -0.17  -0.16  -0.05    -0.15  -0.28   0.18    -0.00  -0.18   0.28
  10   1     0.27   0.10  -0.06     0.01   0.16   0.10    -0.25   0.11   0.19
  11   1     0.01   0.01  -0.01    -0.02  -0.02  -0.02    -0.01  -0.01  -0.00
  12   1     0.11  -0.01  -0.06     0.23   0.20   0.05    -0.16  -0.27  -0.15
  13   1     0.09   0.03   0.22     0.13  -0.07   0.18    -0.07   0.14   0.04
  14   1    -0.13  -0.08   0.13    -0.13   0.13  -0.05     0.02  -0.27   0.22
  15   1     0.00  -0.01  -0.00     0.02  -0.00   0.02     0.01  -0.00   0.01
  16   1    -0.20   0.06  -0.18     0.15  -0.34   0.06     0.00  -0.29  -0.07
  17   1     0.34  -0.13   0.00    -0.00   0.04  -0.19     0.22  -0.05  -0.19
  18   1     0.29   0.31  -0.10    -0.20  -0.18   0.21     0.00   0.04   0.13
  19   1     0.10   0.13   0.22    -0.13  -0.17  -0.07     0.06   0.07  -0.12
  20   1    -0.14   0.20   0.04     0.13   0.14  -0.06    -0.02  -0.32   0.02
  21   1     0.11  -0.03  -0.09    -0.23   0.11  -0.18     0.15  -0.09   0.27
                     43                     44                     45
                        a                      a                      a 
 Frequencies --  1497.1823              2935.5741              2937.5723
 Red. masses --     1.5652                 1.7638                 1.7613
 Frc consts  --     0.0000                 0.0000                 0.0000
 IR Inten    --     1.1629                31.5303                45.4736
 Raman Activ --     0.0000                 0.0000                 0.0000
 Depolar     --     0.0000                 0.0000                 0.0000
 Atom AN      X      Y      Z        X      Y      Z        X      Y      Z
   1   6    -0.05  -0.03   0.08    -0.00   0.01  -0.00     0.00  -0.01   0.00
   2   6    -0.03  -0.03   0.02     0.07  -0.09   0.13    -0.08   0.10  -0.14
   3   6    -0.04  -0.09   0.02    -0.00   0.00  -0.01     0.00  -0.00   0.01
   4  16     0.00  -0.00  -0.00    -0.00   0.00   0.00     0.00   0.01  -0.00
   5   6    -0.04   0.04  -0.01     0.08   0.17   0.03     0.07   0.16   0.03
   6   6    -0.06   0.08   0.04    -0.00  -0.01   0.00    -0.00  -0.01   0.00
   7   6    -0.05   0.09  -0.06    -0.00  -0.01  -0.00    -0.00  -0.01  -0.00
   8   1    -0.00   0.07   0.12    -0.01  -0.00   0.00     0.01   0.01  -0.01
   9   1     0.01   0.17  -0.26     0.01  -0.01  -0.01    -0.01   0.00   0.01
  10   1     0.22  -0.10  -0.17     0.01  -0.01   0.02    -0.01   0.01  -0.02
  11   1     0.02   0.01  -0.00    -0.26   0.35  -0.48     0.28  -0.39   0.53
  12   1     0.15   0.25   0.13     0.01  -0.02   0.02    -0.01   0.02  -0.02
  13   1     0.07  -0.13  -0.02    -0.01  -0.00   0.00     0.01   0.01  -0.00
  14   1    -0.03   0.25  -0.19     0.01   0.01   0.01    -0.01  -0.01  -0.01
  15   1     0.02  -0.01   0.00    -0.27  -0.64  -0.12    -0.25  -0.59  -0.11
  16   1     0.01  -0.33  -0.07     0.01   0.00  -0.01     0.01  -0.00  -0.01
  17   1     0.24  -0.05  -0.21     0.01   0.03   0.01     0.01   0.02   0.01
  18   1    -0.00   0.03   0.15    -0.01   0.01  -0.00    -0.01   0.01  -0.00
  19   1     0.08   0.09  -0.12    -0.01   0.00  -0.00    -0.01   0.01  -0.00
  20   1    -0.03  -0.35   0.03     0.01  -0.00   0.01     0.01  -0.00   0.02
  21   1     0.17  -0.10   0.30     0.01   0.03   0.00     0.01   0.02   0.00
                     46                     47                     48
                        a                      a                      a 
 Frequencies --  3019.1584              3019.4755              3025.7050
 Red. masses --     1.9177                 1.9084                 1.8451
 Frc consts  --     0.0000                 0.0000                 0.0000
 IR Inten    --    73.2816                 5.0801               108.1548
 Raman Activ --     0.0000                 0.0000                 0.0000
 Depolar     --     0.0000                 0.0000                 0.0000
 Atom AN      X      Y      Z        X      Y      Z        X      Y      Z
   1   6    -0.17  -0.03   0.08     0.18   0.03  -0.09    -0.04   0.01   0.02
   2   6    -0.00  -0.00   0.00     0.00   0.00  -0.00    -0.00  -0.00   0.01
   3   6     0.03   0.02   0.01    -0.04  -0.03   0.00    -0.12  -0.12   0.09
   4  16    -0.00  -0.00  -0.00     0.00  -0.00   0.00     0.00  -0.00  -0.00
   5   6    -0.00   0.00   0.00    -0.00   0.00   0.00    -0.00   0.01   0.00
   6   6    -0.18   0.08   0.04    -0.17   0.07   0.04    -0.04  -0.00   0.02
   7   6     0.04  -0.01   0.02     0.04  -0.02   0.02    -0.12   0.14  -0.02
   8   1     0.39   0.32  -0.20    -0.43  -0.34   0.22     0.04   0.04  -0.02
   9   1     0.23  -0.21  -0.11    -0.24   0.22   0.11     0.11  -0.09  -0.05
  10   1    -0.02  -0.00   0.01     0.02   0.01  -0.02    -0.01   0.00   0.00
  11   1     0.00  -0.00   0.00     0.00  -0.00   0.00    -0.00   0.01  -0.01
  12   1    -0.01   0.02  -0.02     0.00  -0.02   0.01    -0.07   0.08  -0.11
  13   1    -0.09  -0.07   0.05     0.14   0.10  -0.07     0.50   0.35  -0.25
  14   1    -0.02  -0.03  -0.04     0.02   0.03   0.04     0.00   0.01   0.04
  15   1     0.00   0.00   0.00    -0.00  -0.00  -0.00    -0.00  -0.01  -0.00
  16   1     0.24   0.08  -0.24     0.22   0.07  -0.21     0.11   0.03  -0.10
  17   1    -0.03   0.02   0.01    -0.02   0.02   0.01    -0.00   0.00   0.00
  18   1     0.43  -0.40   0.08     0.39  -0.36   0.07     0.03  -0.03   0.01
  19   1    -0.10   0.09  -0.01    -0.13   0.11  -0.01     0.48  -0.40   0.06
  20   1    -0.02  -0.01  -0.06    -0.02  -0.01  -0.04     0.00   0.02   0.04
  21   1    -0.01  -0.03  -0.00     0.00  -0.02   0.00    -0.07  -0.13  -0.03
                     49                     50                     51
                        a                      a                      a 
 Frequencies --  3026.4017              3026.8954              3027.2085
 Red. masses --     1.8420                 1.7684                 1.7757
 Frc consts  --     0.0000                 0.0000                 0.0000
 IR Inten    --    68.0464                11.8985                48.5879
 Raman Activ --     0.0000                 0.0000                 0.0000
 Depolar     --     0.0000                 0.0000                 0.0000
 Atom AN      X      Y      Z        X      Y      Z        X      Y      Z
   1   6    -0.03  -0.03   0.03    -0.05   0.16  -0.04    -0.07   0.17  -0.03
   2   6    -0.00  -0.01   0.01    -0.00   0.01  -0.01    -0.00   0.01  -0.00
   3   6    -0.11  -0.12   0.08     0.04   0.02   0.02    -0.00  -0.02   0.04
   4  16    -0.00   0.00  -0.00     0.00   0.00   0.00     0.00   0.00  -0.00
   5   6     0.00  -0.01  -0.00    -0.00  -0.01   0.00     0.00   0.01  -0.00
   6   6     0.04  -0.04   0.00    -0.06  -0.15   0.09     0.07   0.14  -0.09
   7   6     0.12  -0.15   0.02     0.03   0.00   0.03     0.00  -0.04  -0.01
   8   1     0.14   0.11  -0.07    -0.26  -0.17   0.12    -0.25  -0.16   0.12
   9   1     0.01  -0.02  -0.00     0.36  -0.28  -0.19     0.41  -0.31  -0.21
  10   1    -0.02   0.02  -0.03     0.08  -0.12   0.19     0.09  -0.13   0.20
  11   1    -0.01   0.01  -0.02     0.01  -0.01   0.02     0.01  -0.01   0.01
  12   1    -0.07   0.07  -0.10    -0.02   0.04  -0.05    -0.03   0.05  -0.06
  13   1     0.47   0.33  -0.23    -0.08  -0.06   0.04     0.06   0.04  -0.03
  14   1     0.01   0.01   0.05    -0.03  -0.05  -0.06    -0.02  -0.03  -0.03
  15   1     0.01   0.02   0.00     0.01   0.02   0.00    -0.01  -0.02  -0.00
  16   1    -0.01  -0.01   0.01     0.39   0.08  -0.35    -0.38  -0.08   0.35
  17   1     0.02   0.04   0.01     0.09   0.23   0.05    -0.08  -0.22  -0.05
  18   1    -0.14   0.13  -0.02    -0.28   0.22  -0.03     0.23  -0.18   0.02
  19   1    -0.50   0.42  -0.06    -0.07   0.06  -0.00    -0.06   0.05  -0.01
  20   1    -0.01  -0.03  -0.05    -0.03  -0.01  -0.08     0.02  -0.00   0.04
  21   1     0.07   0.12   0.03    -0.02  -0.07  -0.01     0.03   0.08   0.01
                     52                     53                     54
                        a                      a                      a 
 Frequencies --  3033.6212              3033.7800              3038.5123
 Red. masses --     1.8775                 1.8789                 1.4825
 Frc consts  --     0.0000                 0.0000                 0.0000
 IR Inten    --    11.6642                55.8624                54.1346
 Raman Activ --     0.0000                 0.0000                 0.0000
 Depolar     --     0.0000                 0.0000                 0.0000
 Atom AN      X      Y      Z        X      Y      Z        X      Y      Z
   1   6     0.02  -0.01  -0.04     0.02  -0.02  -0.03    -0.05   0.04  -0.12
   2   6     0.01  -0.01   0.01     0.01  -0.01   0.01    -0.00   0.00  -0.01
   3   6     0.11  -0.01   0.18     0.09  -0.02   0.15    -0.02  -0.00  -0.02
   4  16     0.00  -0.00   0.00     0.00   0.00  -0.00    -0.00  -0.00  -0.00
   5   6    -0.01  -0.01  -0.00     0.01   0.01   0.00    -0.00  -0.01  -0.00
   6   6    -0.01   0.02   0.03     0.02  -0.01  -0.03    -0.05  -0.12  -0.06
   7   6    -0.09  -0.11  -0.10     0.11   0.14   0.12    -0.02  -0.02  -0.02
   8   1     0.01   0.01  -0.01     0.02   0.01  -0.01     0.10   0.09  -0.07
   9   1    -0.12   0.10   0.06    -0.12   0.10   0.06    -0.15   0.12   0.05
  10   1     0.04  -0.07   0.08     0.03  -0.04   0.04     0.22  -0.36   0.46
  11   1    -0.01   0.02  -0.02    -0.01   0.01  -0.02     0.01  -0.01   0.01
  12   1    -0.19   0.34  -0.42    -0.16   0.30  -0.37     0.03  -0.06   0.07
  13   1    -0.05  -0.05   0.06    -0.04  -0.04   0.05     0.04   0.03  -0.02
  14   1    -0.15  -0.24  -0.27    -0.12  -0.20  -0.22     0.02   0.03   0.04
  15   1     0.01   0.02   0.01    -0.01  -0.03  -0.01     0.01   0.02   0.00
  16   1     0.10   0.03  -0.09    -0.13  -0.04   0.12    -0.15  -0.06   0.13
  17   1    -0.04  -0.09  -0.01     0.03   0.07   0.01     0.22   0.59   0.09
  18   1    -0.01   0.01   0.00     0.02  -0.01  -0.00     0.10  -0.11   0.01
  19   1     0.05  -0.07  -0.01    -0.05   0.07   0.01     0.04  -0.04   0.00
  20   1     0.13   0.01   0.31    -0.14  -0.01  -0.35     0.02   0.00   0.05
  21   1     0.16   0.46   0.06    -0.19  -0.55  -0.07     0.03   0.09   0.01
                     55                     56                     57
                        a                      a                      a 
 Frequencies --  3039.8020              3040.7488              3042.6967
 Red. masses --     1.4961                 1.3924                 1.3782
 Frc consts  --     0.0000                 0.0000                 0.0000
 IR Inten    --    13.2331                21.6276                30.2179
 Raman Activ --     0.0000                 0.0000                 0.0000
 Depolar     --     0.0000                 0.0000                 0.0000
 Atom AN      X      Y      Z        X      Y      Z        X      Y      Z
   1   6    -0.04   0.04  -0.13    -0.00   0.00   0.00     0.01  -0.00   0.02
   2   6    -0.01   0.00  -0.01     0.00  -0.00  -0.00     0.00  -0.00  -0.00
   3   6    -0.03  -0.02  -0.04    -0.00  -0.12  -0.05     0.00  -0.12  -0.04
   4  16     0.00  -0.00   0.00     0.00  -0.00  -0.00    -0.00  -0.00   0.00
   5   6     0.01   0.01   0.01     0.00   0.00  -0.00    -0.00  -0.00   0.00
   6   6     0.04   0.12   0.06    -0.01  -0.01   0.00    -0.00  -0.01  -0.01
   7   6     0.02   0.02   0.04    -0.00   0.05  -0.12    -0.00  -0.06   0.12
   8   1     0.09   0.08  -0.07    -0.00  -0.00   0.00    -0.02  -0.01   0.01
   9   1    -0.16   0.13   0.06     0.02  -0.01  -0.01     0.03  -0.02  -0.01
  10   1     0.23  -0.36   0.46     0.00  -0.00   0.00    -0.03   0.05  -0.06
  11   1     0.01  -0.01   0.02    -0.00   0.00  -0.00     0.00  -0.00  -0.00
  12   1     0.02  -0.04   0.04    -0.13   0.20  -0.29    -0.13   0.21  -0.29
  13   1     0.01   0.01  -0.01    -0.10  -0.09   0.05    -0.10  -0.09   0.05
  14   1     0.07   0.10   0.12     0.23   0.32   0.41     0.22   0.31   0.39
  15   1    -0.01  -0.02  -0.00    -0.00  -0.00  -0.00    -0.00   0.00   0.00
  16   1     0.16   0.06  -0.13     0.01   0.00  -0.01    -0.02  -0.01   0.02
  17   1    -0.22  -0.57  -0.09     0.01   0.03   0.01     0.03   0.07   0.01
  18   1    -0.09   0.10  -0.01     0.00  -0.00   0.00     0.01  -0.01   0.00
  19   1    -0.01   0.02   0.00    -0.10   0.09  -0.03     0.11  -0.10   0.03
  20   1    -0.05  -0.01  -0.13     0.23   0.05   0.52    -0.23  -0.05  -0.51
  21   1    -0.02  -0.07  -0.01    -0.12  -0.33  -0.07     0.13   0.35   0.07
