
                                 *****************
                                 * O   R   C   A *
                                 *****************

                                            #,                                       
                                            ###                                      
                                            ####                                     
                                            #####                                    
                                            ######                                   
                                           ########,                                 
                                     ,,################,,,,,                         
                               ,,#################################,,                 
                          ,,##########################################,,             
                       ,#########################################, ''#####,          
                    ,#############################################,,   '####,        
                  ,##################################################,,,,####,       
                ,###########''''           ''''###############################       
              ,#####''   ,,,,##########,,,,          '''####'''          '####       
            ,##' ,,,,###########################,,,                        '##       
           ' ,,###''''                  '''############,,,                           
         ,,##''                                '''############,,,,        ,,,,,,###''
      ,#''                                            '''#######################'''  
     '                                                          ''''####''''         
             ,#######,   #######,   ,#######,      ##                                
            ,#'     '#,  ##    ##  ,#'     '#,    #''#        ,####,   ,####,        
            ##       ##  ##   ,#'  ##            #'  '#       #'       #'  '#        
            ##       ##  #######   ##           ,######,      #####,   #    #        
            '#,     ,#'  ##    ##  '#,     ,#' ,#      #,     #,   #   #,  ,#        
             '#######'   ##     ##  '#######'  #'      '#     '####' # '####'        



                #########################################################
                #                        -***-                          #
                #          Department of theory and spectroscopy        #
                #                                                       #
                #                      Frank Neese                      #
                #                                                       #
                #     Directorship, Architecture, Infrastructure        #
                #                    SHARK, DRIVERS                     #
                #        Core code/Algorithms in most modules           #
                #                                                       #
                #        Max Planck Institute fuer Kohlenforschung      #
                #                Kaiser Wilhelm Platz 1                 #
                #                 D-45470 Muelheim/Ruhr                 #
                #                      Germany                          #
                #                                                       #
                #                  All rights reserved                  #
                #                        -***-                          #
                #########################################################


                         Program Version 6.0.0  -   RELEASE  -


 With contributions from (in alphabetic order):
   Daniel Aravena         : Magnetic Suceptibility
   Michael Atanasov       : Ab Initio Ligand Field Theory (pilot matlab implementation)
   Alexander A. Auer      : GIAO ZORA, VPT2 properties, NMR spectrum
   Ute Becker             : All parallelization in ORCA, NUMFREQ, NUMCALC
   Giovanni Bistoni       : ED, misc. LED, open-shell LED, HFLD
   Martin Brehm           : Molecular dynamics
   Dmytro Bykov           : pre 5.0 version of the SCF Hessian
   Marcos Casanova-Páez   : Triplet and SCS-CIS(D). UHF-(DLPNO)-IP/EA/STEOM-CCSD. UHF-CVS-IP/STEOM-CCSD
   Vijay G. Chilkuri      : MRCI spin determinant printing, contributions to CSF-ICE
   Pauline Colinet        : FMM embedding
   Dipayan Datta          : RHF DLPNO-CCSD density
   Achintya Kumar Dutta   : EOM-CC, STEOM-CC
   Nicolas Foglia         : Exact transition moments, OPA infrastructure, MCD improvements
   Dmitry Ganyushin       : Spin-Orbit,Spin-Spin,Magnetic field MRCI
   Miquel Garcia          : C-PCM and meta-GGA Hessian, CCSD/C-PCM, Gaussian charge scheme
   Tiago L. C. Gouveia    : GS-ROHF, GS-ROCIS
   Yang Guo               : DLPNO-NEVPT2, F12-NEVPT2, CIM, IAO-localization
   Andreas Hansen         : Spin unrestricted coupled pair/coupled cluster methods
   Ingolf Harden          : AUTO-CI MPn and infrastructure 
   Benjamin Helmich-Paris : MC-RPA, TRAH-(SCF,CASSCF), AVAS, COSX integrals, SCF dyn. polar.
   Lee Huntington         : MR-EOM, pCC
   Robert Izsak           : Overlap fitted RIJCOSX, COSX-SCS-MP3, EOM
   Riya Kayal             : Wick's Theorem for AUTO-CI, AUTO-CI UHF-CCSDT
   Emily Kempfer          : AUTO-CI, RHF CISDT and CCSDT
   Christian Kollmar      : KDIIS, OOCD, Brueckner-CCSD(T), CCSD density, CASPT2, CASPT2-K, improved NEVPT2
   Axel Koslowski         : Symmetry handling
   Simone Kossmann        : Meta GGA functionals, TD-DFT gradient, OOMP2, (MP2 Hessian; deprecated post 5.0)
   Lucas Lang             : DCDCAS
   Marvin Lechner         : AUTO-CI (C++ implementation), FIC-MRCC
   Spencer Leger          : CASSCF response
   Dagmar Lenk            : GEPOL surface, SMD, ORCA-2-JSON
   Dimitrios Liakos       : Extrapolation schemes; Compound Job, initial MDCI parallelization
   Dimitrios Manganas     : Further ROCIS development; embedding schemes. LFT, Crystal Embedding
   Dimitrios Pantazis     : SARC Basis sets
   Anastasios Papadopoulos: AUTO-CI, single reference methods and gradients
   Taras Petrenko         : pre 6.0 DFT Hessian and TD-DFT gradient, (ASA, deprecated), ECA, 1-Electron XAS/XES, NRVS
   Peter Pinski           : DLPNO-MP2, DLPNO-MP2 Gradient
   Christoph Reimann      : Effective Core Potentials
   Marius Retegan         : Local ZFS, SOC
   Christoph Riplinger    : Optimizer, TS searches, QM/MM, DLPNO-CCSD(T), (RO)-DLPNO pert. Triples
   Michael Roemelt        : Original ROCIS implementation
   Masaaki Saitow         : Open-shell DLPNO-CCSD energy and density
   Barbara Sandhoefer     : DKH picture change effects
   Kantharuban Sivalingam : CASSCF convergence/infrastructure, NEVPT2 and variants, FIC-MRCI
   Bernardo de Souza      : ESD, SOC TD-DFT
   Georgi Stoychev        : AutoAux, RI-MP2 NMR, DLPNO-MP2 response, X2C
   Van Anh Tran           : RI-MP2 g-tensors
   Willem Van den Heuvel  : Paramagnetic NMR
   Zikuan Wang            : NOTCH, Electric field optimization 
   Frank Wennmohs         : Technical directorship and infrastructure
   Hang Xu                : AUTO-CI-Response properties 


 We gratefully acknowledge several colleagues who have allowed us to
 interface, adapt or use parts of their codes:
   Stefan Grimme, W. Hujo, H. Kruse, P. Pracht,  : VdW corrections, initial TS optimization,
                  C. Bannwarth, S. Ehlert,         DFT functionals, gCP, sTDA/sTD-DF
                  L. Wittmann, M. Mueller
   Ed Valeev, F. Pavosevic, A. Kumar             : LibInt (2-el integral package), F12 methods
   Garnet Chan, S. Sharma, J. Yang, R. Olivares  : DMRG
   Ulf Ekstrom                                   : XCFun DFT Library
   Mihaly Kallay                                 : mrcc  (arbitrary order and MRCC methods)
   Frank Weinhold                                : gennbo (NPA and NBO analysis)
   Simon Mueller                                 : openCOSMO-RS
   Christopher J. Cramer and Donald G. Truhlar   : smd solvation model
   Lars Goerigk                                  : TD-DFT with DH, B97 family of functionals
   V. Asgeirsson, H. Jonsson                     : NEB implementation
   FAccTs GmbH                                   : IRC, NEB, NEB-TS, DLPNO-Multilevel, CI-OPT
                                                   MM, QMMM, 2- and 3-layer-ONIOM, Crystal-QMMM,
                                                   LR-CPCM, SF, NACMEs, symmetry and pop. for TD-DFT,
                                                   nearIR, NL-DFT gradient (VV10), updates on ESD,
                                                   ML-optimized integration grids, MBIS, APM,
                                                   GOAT, DOCKER, SOLVATOR, interface openCOSMO-RS
   S Lehtola, MJT Oliveira, MAL Marques          : LibXC Library
   Liviu Ungur et al                             : ANISO software


 Your calculation uses the libint2 library for the computation of 2-el integrals
 For citations please refer to: http://libint.valeyev.net

 Your ORCA version has been built with support for libXC version: 6.2.2
 For citations please refer to: https://libxc.gitlab.io

 This ORCA versions uses:
   CBLAS   interface :  Fast vector & matrix operations
   LAPACKE interface :  Fast linear algebra routines
   SCALAPACK package :  Parallel linear algebra routines
   Shared memory     :  Shared parallel matrices
   BLAS/LAPACK       :  OpenBLAS 0.3.27  USE64BITINT DYNAMIC_ARCH NO_AFFINITY SkylakeX SINGLE_THREADED
        Core in use  :  SkylakeX
   Copyright (c) 2011-2014, The OpenBLAS Project


Your calculation utilizes the geometrical counterpoise correction gCP
Please cite in your paper:
H.Kruse, S. Grimme J.Chem.Phys., 136, (2012), 154101 
   

Your calculation utilizes the atom-pairwise dispersion correction
based on EEQ partial charges (D4)


Your calculation utilizes the SMD solvation module
Please cite in your paper:
A.V. Marenich, C.J. Cramer, D.G. Truhlar J. Phys. Chem. B, 113, (2009), 6378 

================================================================================

----- Orbital basis set information -----
Your calculation utilizes the basis: def2-mTZVPP
   Stefan Grimme, Andreas Hansen, Sebastian Ehlert, and Jan-Michael Mewes 
   J. Chem. Phys. 154, 064103 (2021). DOI: 10.1063/5.0040021

----- AuxJ basis set information -----
Your calculation utilizes the auxiliary basis: def2/J
   F. Weigend, Phys. Chem. Chem. Phys. 8, 1057 (2006).

================================================================================
                                        WARNINGS
                       Please study these warnings very carefully!
================================================================================

Using LibXC functional ID 497 : Re-regularized SCAN exchange by Furness et al
[ 1]  J. W. Furness, A. D. Kaplan, J. Ning, J. P. Perdew, and J. Sun.,  J. Phys. Chem. Lett. 11, 8208-8215 (2020)
[ 2]  J. W. Furness, A. D. Kaplan, J. Ning, J. P. Perdew, and J. Sun.,  J. Phys. Chem. Lett. 11, 9248-9248 (2020)
Using LibXC functional ID 498 : Re-regularized SCAN correlation by Furness et al
[ 1]  J. W. Furness, A. D. Kaplan, J. Ning, J. P. Perdew, and J. Sun.,  J. Phys. Chem. Lett. 11, 8208-8215 (2020)
[ 2]  J. W. Furness, A. D. Kaplan, J. Ning, J. P. Perdew, and J. Sun.,  J. Phys. Chem. Lett. 11, 9248-9248 (2020)
Using LibXC functional ID 497 : Re-regularized SCAN exchange by Furness et al
[ 1]  J. W. Furness, A. D. Kaplan, J. Ning, J. P. Perdew, and J. Sun.,  J. Phys. Chem. Lett. 11, 8208-8215 (2020)
[ 2]  J. W. Furness, A. D. Kaplan, J. Ning, J. P. Perdew, and J. Sun.,  J. Phys. Chem. Lett. 11, 9248-9248 (2020)
Using LibXC functional ID 498 : Re-regularized SCAN correlation by Furness et al
[ 1]  J. W. Furness, A. D. Kaplan, J. Ning, J. P. Perdew, and J. Sun.,  J. Phys. Chem. Lett. 11, 8208-8215 (2020)
[ 2]  J. W. Furness, A. D. Kaplan, J. Ning, J. P. Perdew, and J. Sun.,  J. Phys. Chem. Lett. 11, 9248-9248 (2020)

================================================================================
                                       INPUT FILE
================================================================================
NAME = sp_solv.inp
|  1> ! r2scan-3c def2/J RI DEFGRID2 scfconv6 printgap
|  2> %output
|  3>     printlevel normal
|  4> end
|  5> %cpcm
|  6>     smd true
|  7>     smdsolvent "water"
|  8> end
|  9> * xyz 0 1
| 10> C -2.7581007074 0.1347979187 0.0034653742
| 11> C -1.362418603 -0.4118769041 0.2802615522
| 12> C -0.3014651499 0.5197722197 -0.2856638139
| 13> N 1.0555339107 0.0382738912 -0.0540154908
| 14> O 1.9676363301 0.7223774025 -0.4811379595
| 15> O 1.2194574538 -1.0036788301 0.5431796982
| 16> H -2.9280681232 0.2297991799 -1.0655997735
| 17> H -3.5080318321 -0.5363011322 0.4107896629
| 18> H -2.8863295096 1.1112181009 0.4627971592
| 19> H -1.2542247746 -1.4004651982 -0.1683762379
| 20> H -1.2124069827 -0.523351842 1.3551430194
| 21> H -0.412399543 0.6441052798 -1.3666221653
| 22> H -0.3636296687 1.5163664145 0.160756216
| 23> *
| 24> 
| 25>                          ****END OF INPUT****
================================================================================

                       ****************************
                       * Single Point Calculation *
                       ****************************

---------------------------------
CARTESIAN COORDINATES (ANGSTROEM)
---------------------------------
  C     -2.758101    0.134798    0.003465
  C     -1.362419   -0.411877    0.280262
  C     -0.301465    0.519772   -0.285664
  N      1.055534    0.038274   -0.054015
  O      1.967636    0.722377   -0.481138
  O      1.219457   -1.003679    0.543180
  H     -2.928068    0.229799   -1.065600
  H     -3.508032   -0.536301    0.410790
  H     -2.886330    1.111218    0.462797
  H     -1.254225   -1.400465   -0.168376
  H     -1.212407   -0.523352    1.355143
  H     -0.412400    0.644105   -1.366622
  H     -0.363630    1.516366    0.160756

----------------------------
CARTESIAN COORDINATES (A.U.)
----------------------------
  NO LB      ZA    FRAG     MASS         X           Y           Z
   0 C     6.0000    0    12.011   -5.212055    0.254731    0.006549
   1 C     6.0000    0    12.011   -2.574598   -0.778335    0.529618
   2 C     6.0000    0    12.011   -0.569687    0.982227   -0.539826
   3 N     7.0000    0    14.007    1.994670    0.072327   -0.102074
   4 O     8.0000    0    15.999    3.718294    1.365095   -0.909219
   5 O     8.0000    0    15.999    2.304441   -1.896678    1.026461
   6 H     1.0000    0     1.008   -5.533247    0.434258   -2.013692
   7 H     1.0000    0     1.008   -6.629219   -1.013462    0.776280
   8 H     1.0000    0     1.008   -5.454372    2.099898    0.874560
   9 H     1.0000    0     1.008   -2.370141   -2.646496   -0.318185
  10 H     1.0000    0     1.008   -2.291117   -0.988992    2.560849
  11 H     1.0000    0     1.008   -0.779322    1.217183   -2.582542
  12 H     1.0000    0     1.008   -0.687160    2.865517    0.303785

--------------------------------
INTERNAL COORDINATES (ANGSTROEM)
--------------------------------
 C      0   0   0     0.000000000000     0.00000000     0.00000000
 C      1   0   0     1.524269668589     0.00000000     0.00000000
 C      2   1   0     1.521138994148   110.57385253     0.00000000
 N      3   2   1     1.458405991627   112.80981420   180.31930105
 O      4   3   2     1.217522911865   117.11813343   179.66408840
 O      4   3   2     1.212096735072   119.20290052   359.65278648
 H      1   2   3     1.086652866416   110.68482687    60.25162411
 H      1   2   3     1.085672005754   110.03877629   180.00295112
 H      1   2   3     1.086657575611   110.70474771   299.78386578
 H      2   1   3     1.091003476824   109.94447870   239.04409550
 H      2   1   3     1.091008852638   109.96537401   121.00012116
 H      3   2   1     1.093725791443   111.50477263   300.48825294
 H      3   2   1     1.093780261114   111.50371203    60.15236675

---------------------------
INTERNAL COORDINATES (A.U.)
---------------------------
 C      0   0   0     0.000000000000     0.00000000     0.00000000
 C      1   0   0     2.880452227877     0.00000000     0.00000000
 C      2   1   0     2.874536110568   110.57385253     0.00000000
 N      3   2   1     2.755987916244   112.80981420   180.31930105
 O      4   3   2     2.300784865200   117.11813343   179.66408840
 O      4   3   2     2.290530877106   119.20290052   359.65278648
 H      1   2   3     2.053476320167   110.68482687    60.25162411
 H      1   2   3     2.051622762140   110.03877629   180.00295112
 H      1   2   3     2.053485219255   110.70474771   299.78386578
 H      2   1   3     2.061697782353   109.94447870   239.04409550
 H      2   1   3     2.061707941170   109.96537401   121.00012116
 H      3   2   1     2.066842211434   111.50477263   300.48825294
 H      3   2   1     2.066945144194   111.50371203    60.15236675

---------------------
BASIS SET INFORMATION
---------------------
There are 4 groups of distinct atoms

 Group   1 Type C   : 11s6p1d contracted to 5s3p1d pattern {62111/411/1}
 Group   2 Type N   : 11s6p2d contracted to 5s3p2d pattern {62111/411/11}
 Group   3 Type O   : 11s6p2d contracted to 5s3p2d pattern {62111/411/11}
 Group   4 Type H   : 4s1p contracted to 2s1p pattern {31/1}

Atom   0C    basis set group =>   1
Atom   1C    basis set group =>   1
Atom   2C    basis set group =>   1
Atom   3N    basis set group =>   2
Atom   4O    basis set group =>   3
Atom   5O    basis set group =>   3
Atom   6H    basis set group =>   4
Atom   7H    basis set group =>   4
Atom   8H    basis set group =>   4
Atom   9H    basis set group =>   4
Atom  10H    basis set group =>   4
Atom  11H    basis set group =>   4
Atom  12H    basis set group =>   4
---------------------------------
AUXILIARY/J BASIS SET INFORMATION
---------------------------------
There are 4 groups of distinct atoms

 Group   1 Type C   : 12s5p4d2f1g contracted to 6s4p3d1f1g pattern {711111/2111/211/2/1}
 Group   2 Type N   : 12s5p4d2f1g contracted to 6s4p3d1f1g pattern {711111/2111/211/2/1}
 Group   3 Type O   : 12s5p4d2f1g contracted to 6s4p3d1f1g pattern {711111/2111/211/2/1}
 Group   4 Type H   : 5s2p1d contracted to 3s1p1d pattern {311/2/1}

Atom   0C    basis set group =>   1
Atom   1C    basis set group =>   1
Atom   2C    basis set group =>   1
Atom   3N    basis set group =>   2
Atom   4O    basis set group =>   3
Atom   5O    basis set group =>   3
Atom   6H    basis set group =>   4
Atom   7H    basis set group =>   4
Atom   8H    basis set group =>   4
Atom   9H    basis set group =>   4
Atom  10H    basis set group =>   4
Atom  11H    basis set group =>   4
Atom  12H    basis set group =>   4

Checking for AutoStart:
The File: sp_solv.gbw exists
Trying to determine its content:
     ... Fine, the file contains calculation information
     ... Fine, the calculation information was read
     ... Fine, the file contains a basis set
     ... Fine, the basis set was read
     ... Fine, the file contains a geometry
     ... Fine, the geometry was read
     ... Fine, the file contains a set of orbitals
     ... Fine, the orbitals can be read
     => possible old guess file was deleted
     => GBW file was renamed to GES file
     => GES file is set as startup file
     => Guess is set to MORead
     ... now leaving AutoStart

------------------------------------------------------------------------------
                             ORCA STARTUP CALCULATIONS
                           -- RI-GTO INTEGRALS CHOSEN --
------------------------------------------------------------------------------
------------------------------------------------------------------------------
                   ___                                                        
                  /   \      - P O W E R E D   B Y -                         
                 /     \                                                     
                 |  |  |   _    _      __       _____    __    __             
                 |  |  |  | |  | |    /  \     |  _  \  |  |  /  |          
                  \  \/   | |  | |   /    \    | | | |  |  | /  /          
                 / \  \   | |__| |  /  /\  \   | |_| |  |  |/  /          
                |  |  |   |  __  | /  /__\  \  |    /   |      \           
                |  |  |   | |  | | |   __   |  |    \   |  |\   \          
                \     /   | |  | | |  |  |  |  | |\  \  |  | \   \       
                 \___/    |_|  |_| |__|  |__|  |_| \__\ |__|  \__/        
                                                                              
                      - O R C A' S   B I G   F R I E N D -                    
                                      &                                       
                       - I N T E G R A L  F E E D E R -                       
                                                                              
 v1 FN, 2020, v2 2021, v3 2022-2024                                           
------------------------------------------------------------------------------


----------------------
SHARK INTEGRAL PACKAGE
----------------------

Number of atoms                             ...     13
Number of basis functions                   ...    164
Number of shells                            ...     78
Maximum angular momentum                    ...      2
Integral batch strategy                     ... SHARK/LIBINT Hybrid
RI-J (if used) integral strategy            ... SPLIT-RIJ (Revised 2003 algorithm where possible)
Printlevel                                  ...      1
Contraction scheme used                     ... SEGMENTED contraction
Prescreening option                         ... SCHWARTZ
   Thresh                                   ... 1.000e-10
   Tcut                                     ... 1.000e-11
   Tpresel                                  ... 1.000e-11 
Coulomb Range Separation                    ... NOT USED
Exchange Range Separation                   ... NOT USED
Multipole approximations                    ... NOT USED
Finite Nucleus Model                        ... NOT USED
CABS basis                                  ... NOT available
Auxiliary Coulomb fitting basis             ... AVAILABLE
   # of basis functions in Aux-J            ...    371
   # of shells in Aux-J                     ...    125
   Maximum angular momentum in Aux-J        ...      4
Auxiliary J/K fitting basis                 ... NOT available
Auxiliary Correlation fitting basis         ... NOT available
Auxiliary 'external' fitting basis          ... NOT available

Checking pre-screening integrals            ... done (  0.0 sec) Dimension = 78
Check shell pair data                       ... done (  0.0 sec)
Shell pair information
Shell pair cut-off parameter TPreSel        ...   1.0e-11
Total number of shell pairs                 ...      3081
Shell pairs after pre-screening             ...      2853
Total number of primitive shell pairs       ...     10884
Primitive shell pairs kept                  ...      7572
          la=0 lb=0:    893 shell pairs
          la=1 lb=0:   1025 shell pairs
          la=1 lb=1:    309 shell pairs
          la=2 lb=0:    370 shell pairs
          la=2 lb=1:    212 shell pairs
          la=2 lb=2:     44 shell pairs

Calculating one electron integrals          ... done (  0.0 sec)
Calculating RI/J V-Matrix + Cholesky decomp.... done (  0.2 sec)
Calculating Nuclear repulsion               ... done (  0.0 sec) ENN=    246.684277607737 Eh

Diagonalization of the overlap matrix:
Smallest eigenvalue                        ... 1.888e-04
Time for diagonalization                   ...    0.005 sec
Threshold for overlap eigenvalues          ... 1.000e-07
Number of eigenvalues below threshold      ... 0
Time for construction of square roots      ...    0.021 sec
Total time needed                          ...    0.038 sec

-------------------
DFT GRID GENERATION
-------------------

General Integration Accuracy     IntAcc      ... 4.388
Radial Grid Type                 RadialGrid  ... OptM3 with GC (2021)
Angular Grid (max. ang.)         AngularGrid ... 4 (Lebedev-302)
Angular grid pruning method      GridPruning ... 4 (adaptive)
Weight generation scheme         WeightScheme... mBecke (2022)
Basis function cutoff            BFCut       ... 1.0000e-10
Integration weight cutoff        WCut        ... 1.0000e-14
Partially contracted basis set               ... off
Rotationally invariant grid construction     ... off
Angular grids for H and He will be reduced by one unit
Diffuse basis detected: some atoms will have their outermost
                        angular grid increased by 1.

Total number of grid points                  ...    59488
Total number of batches                      ...      934
Average number of points per batch           ...       63
Average number of grid points per atom       ...     4576
Initializing property integral containers    ... done (  0.0 sec)

SHARK setup successfully completed in   1.3 seconds

Maximum memory used throughout the entire STARTUP-calculation: 26.9 MB
-------------------------------------------------------------------------------
                                 ORCA GUESS
                   Start orbitals & Density for SCF / CASSCF
-------------------------------------------------------------------------------

------------
SCF SETTINGS
------------
Hamiltonian:
 Density Functional     Method          .... DFT(GTOs)
  Functional kind                       .... Exchange
  Functional name                       .... Re-regularized SCAN exchange by Furness et al
  Functional family                     .... MGGA
  Functional refs                              
    [ 0] J. W. Furness, A. D. Kaplan, J. Ning, J. P. Perdew, and J. Sun.,  J. Phys. Chem. Lett. 11, 8208-8215 (2020), doi: 10.1021/acs.jpclett.0c02405
    [ 1] J. W. Furness, A. D. Kaplan, J. Ning, J. P. Perdew, and J. Sun.,  J. Phys. Chem. Lett. 11, 9248-9248 (2020), doi: 10.1021/acs.jpclett.0c03077
  Functional external parameters        .... 6
    Parameter  0 _c1        =  6.670000e-01 : c1 parameter        
    Parameter  1 _c2        =  8.000000e-01 : c2 parameter        
    Parameter  2 _d         =  1.240000e+00 : d parameter         
    Parameter  3 _k1        =  6.500000e-02 : k1 parameter        
    Parameter  4 _eta       =  1.000000e-03 : eta parameter       
    Parameter  5 _dp2       =  3.610000e-01 : dp2 parameter       
  Functional kind                       .... Correlation
  Functional name                       .... Re-regularized SCAN correlation by Furness et al
  Functional family                     .... MGGA
  Functional refs                              
    [ 0] J. W. Furness, A. D. Kaplan, J. Ning, J. P. Perdew, and J. Sun.,  J. Phys. Chem. Lett. 11, 8208-8215 (2020), doi: 10.1021/acs.jpclett.0c02405
    [ 1] J. W. Furness, A. D. Kaplan, J. Ning, J. P. Perdew, and J. Sun.,  J. Phys. Chem. Lett. 11, 9248-9248 (2020), doi: 10.1021/acs.jpclett.0c03077
  Functional external parameters        .... 1
    Parameter  0 _eta       =  1.000000e-03 : Regularization parameter
 Gradients option       PostSCFGGA      .... off
 RI-approximation to the Coulomb term is turned on
   Number of AuxJ basis functions       .... 371


General Settings:
 Integral files         IntName         .... sp_solv
 Hartree-Fock type      HFTyp           .... RHF
 Total Charge           Charge          ....    0
 Multiplicity           Mult            ....    1
 Number of Electrons    NEL             ....   48
 Basis Dimension        Dim             ....  164
 Nuclear Repulsion      ENuc            ....    246.6842776077 Eh

Convergence Acceleration:
 AO-DIIS                CNVDIIS         .... on
   Start iteration      DIISMaxIt       ....    12
   Startup error        DIISStart       ....  0.200000
   # of expansion vecs  DIISMaxEq       ....     5
   Bias factor          DIISBfac        ....   1.050
   Max. coefficient     DIISMaxC        ....  10.000
 MO-DIIS                CNVKDIIS        .... off
 Trust-Rad. Augm. Hess. CNVTRAH         .... auto
   Auto Start mean grad. ratio tolernc. ....  1.125000
   Auto Start start iteration           ....     1
   Auto Start num. interpolation iter.  ....    10
   Max. Number of Micro iterations      ....    24
   Max. Number of Macro iterations      .... Maxiter - #DIIS iter
   Number of Davidson start vectors     ....     2
   Converg. threshold    (grad. norm)   ....   3.330e-04
   Grad. Scal. Fac. for Micro threshold ....   0.100
   Minimum threshold for Micro iter.    ....   1.000e-02
   NR start threshold (gradient norm)   ....   1.000e-04
   Initial trust radius                 ....   0.400
   Minimum AH scaling param. (alpha)    ....   1.000
   Maximum AH scaling param. (alpha)    .... 1000.000
   Quad. conv. algorithm                .... NR
   White noise on init. David. guess    .... on
   Maximum white noise                  ....   0.010
   Pseudo random numbers                .... off
   Inactive MOs                         .... canonical
   Orbital update algorithm             .... Taylor
   Preconditioner                       .... Diag
   Full preconditioner red. dimension   ....   250
   COSX micro iterations for RIJONX calc.... off
 SOSCF                  CNVSOSCF        .... on
   Start iteration      SOSCFMaxIt      ....   150
   Startup grad/error   SOSCFStart      ....  0.003300
   Hessian update       SOSCFHessUp     .... L-BFGS
 Level Shifting         CNVShift        .... on
   Level shift para.    LevelShift      ....    0.2500
   Turn off err/grad.   ShiftErr        ....    0.0010
 Zerner damping         CNVZerner       .... off
 Static damping         CNVDamp         .... on
   Fraction old density DampFac         ....    0.7000
   Max. Damping (<1)    DampMax         ....    0.9800
   Min. Damping (>=0)   DampMin         ....    0.0000
   Turn off err/grad.   DampErr         ....    0.1000

SCF Procedure:
 Maximum # iterations   MaxIter         ....   125
 SCF integral mode      SCFMode         .... Direct
   Integral package                     .... SHARK and LIBINT hybrid scheme
 Reset frequency        DirectResetFreq ....    20
 Integral Threshold     Thresh          ....  1.000e-10 Eh
 Primitive CutOff       TCut            ....  1.000e-11 Eh

Convergence Tolerance:
 Convergence Check Mode ConvCheckMode   .... Total+1el-Energy
 Convergence forced     ConvForced      .... 0
 Energy Change          TolE            ....  1.000e-06 Eh
 1-El. energy change                    ....  1.000e-03 Eh
 Orbital Gradient       TolG            ....  3.330e-04
 Orbital Rotation angle TolX            ....  3.330e-04
 DIIS Error             TolErr          ....  1.000e-06

---------------------
INITIAL GUESS: MOREAD
---------------------
Guess MOs are being read from file: sp_solv.ges
Input Geometry matches current geometry (good)
Atom 0: N(Shells)= 9 and 6 - projection required
Input basis set needs projection
NBasis(read)= 98
NBasis(calc)= 164
Basis set overlap was calculated
Using GuessMode=FMatrix for the initial guess
C*T matrix was formed
Effective Fockian was calculated
Effective Fockian was diagonalized
Initial density was built
                      ------------------
                      INITIAL GUESS DONE (   0.2 sec)
                      ------------------
             **** ENERGY FILE WAS UPDATED (sp_solv.en.tmp) ****
Finished Guess after   0.6 sec
Maximum memory used throughout the entire GUESS-calculation: 11.0 MB

-------------------------------------------------------------------------------------------
                                      ORCA LEAN-SCF
                              memory conserving SCF solver
-------------------------------------------------------------------------------------------

--------------------
CPCM SOLVATION MODEL
--------------------
CPCM parameters:
  Epsilon                                         ...      78.3550
  Refrac                                          ...       1.3328
  Rsolv                                           ...       1.3000
  Surface type                                    ... GAUSSIAN VDW
  Discretization scheme                           ... Constant charge density
    Threshold for H atoms                         ...       5.0000 (charges/Ang^2)
    Threshold for non-H atoms                     ...       5.0000 (charges/Ang^2)
  Epsilon function type                           ...         CPCM
Solvent:                                          ... WATER
SMD-CDS solvent descriptors:
  Soln                                            ...       1.3328
  Soln25                                          ...       1.3323
  Sola                                            ...       0.0000
  Solb                                            ...       0.0000
  Solg                                            ...       0.0000
  Solc                                            ...       0.0000
  Solh                                            ...       0.0000
Radii:
  Scheme                                          ... Element-dependent radii
  Radius for C  used is    3.4960 Bohr (=   1.8500 Ang.)
  Radius for N  used is    3.5716 Bohr (=   1.8900 Ang.)
  Radius for O  used is    2.8724 Bohr (=   1.5200 Ang.)
  Radius for H  used is    2.2677 Bohr (=   1.2000 Ang.)
Calculating surface                               ...        done! (  0.0s)
Cavity surface points                             ...         1006
Cavity Volume                                     ...     613.0179
Cavity Surface-area                               ...     422.3876
Calculating surface distance matrix               ...        done! (  0.0s)
Performing Cholesky decomposition & store         ...        done! (  0.1s)
Overall time for CPCM initialization              ...                 0.1s

----------------------------------------D-I-I-S--------------------------------------------
Iteration    Energy (Eh)           Delta-E    RMSDP     MaxDP     DIISErr   Damp  Time(sec)
-------------------------------------------------------------------------------------------
               ***  Starting incremental Fock matrix formation  ***
    1    -323.4361988859478743     0.00e+00  5.67e-03  2.39e-01  6.37e-01  0.700   2.4
    2    -323.4857393522497659    -4.95e-02  4.71e-03  1.68e-01  4.48e-01  0.700   2.4
    3    -323.5208671205942892    -3.51e-02  3.48e-03  1.12e-01  3.15e-01  0.700   2.1
    4    -323.5455900719811098    -2.47e-02  2.51e-03  7.53e-02  2.20e-01  0.700   2.3
                               ***Turning on AO-DIIS***
    5    -323.5629613339165189    -1.74e-02  1.82e-03  5.00e-02  1.54e-01  0.700   2.1
    6    -323.5751482862381181    -1.22e-02  1.30e-03  3.37e-02  1.08e-01  0.700   2.0
    7    -323.5837053336022109    -8.56e-03  9.18e-04  2.32e-02  7.54e-02  0.700   2.4
    8    -323.5897045782352279    -6.00e-03  2.16e-03  5.44e-02  5.29e-02  0.000   1.8
                              *** Initializing SOSCF ***
---------------------------------------S-O-S-C-F--------------------------------------
Iteration    Energy (Eh)           Delta-E    RMSDP     MaxDP     MaxGrad    Time(sec)
--------------------------------------------------------------------------------------
    9    -323.6037370769923882    -1.40e-02  2.10e-05  5.50e-04  2.01e-04     2.1
               *** Restarting incremental Fock matrix formation ***
   10    -323.6037372721858674    -1.95e-07  1.28e-05  3.60e-04  1.13e-04     2.1
   11    -323.6037370564176854     2.16e-07  5.13e-06  1.41e-04  2.37e-04     1.7
                 **** Energy Check signals convergence ****

               *****************************************************
               *                     SUCCESS                       *
               *           SCF CONVERGED AFTER  11 CYCLES          *
               *****************************************************


SMD CDS free energy correction energy :                 4.92080     Kcal/mol
Total Energy after SMD CDS correction =              -323.595895270 Eh
             **** ENERGY FILE WAS UPDATED (sp_solv.en.tmp) ****

----------------
TOTAL SCF ENERGY
----------------

Total Energy       :       -323.59589527020700 Eh           -8805.49197 eV

Components:
Nuclear Repulsion  :        246.68427760773656 Eh            6712.62046 eV
Electronic Energy  :       -570.27064021857382 Eh          -15517.85303 eV
One Electron Energy:       -928.37008800029184 Eh          -25262.23440 eV
Two Electron Energy:        358.09944778171808 Eh            9744.38137 eV
CPCM Dielectric    :         -0.01737444558061 Eh              -0.47278 eV
SMD CDS (Gcds)     :          0.00784178621071 Eh               0.21339 eV

Virial components:
Potential Energy   :       -646.03617832281111 Eh          -17579.53814 eV
Kinetic Energy     :        322.44028305260406 Eh            8774.04617 eV
Virial Ratio       :          2.00358395733518

DFT components:
N(Alpha)           :       23.999963912760 electrons
N(Beta)            :       23.999963912760 electrons
N(Total)           :       47.999927825519 electrons
E(X)               :      -41.270106147716 Eh       
E(C)               :       -1.561897510730 Eh       
E(XC)              :      -42.832003658446 Eh       

CPCM Solvation Model Properties:
Surface-charge          :         -0.03871177245100
Corrected charge        :         -0.00000000000000
Outlying charge corr.   :          0.00013170911869 Eh               0.00358 eV
Free-energy (cav+disp)  :          0.00784178621071 Eh               0.21339 eV

---------------
SCF CONVERGENCE
---------------

  Last Energy change         ...   -2.1577e-07  Tolerance :   1.0000e-06
  Last MAX-Density change    ...    1.4093e-04  Tolerance :   1.0000e-05
  Last RMS-Density change    ...    5.1251e-06  Tolerance :   1.0000e-06
  Last DIIS Error            ...    2.0112e-04  Tolerance :   1.0000e-06
  Last Orbital Gradient      ...    2.3735e-04  Tolerance :   3.3300e-04
  Last Orbital Rotation      ...    1.9435e-04  Tolerance :   3.3300e-04


----------------
ORBITAL ENERGIES
----------------

  NO   OCC          E(Eh)            E(eV) 
   0   2.0000     -18.997746      -516.9550 
   1   2.0000     -18.993180      -516.8307 
   2   2.0000     -14.398620      -391.8064 
   3   2.0000     -10.080481      -274.3038 
   4   2.0000     -10.033206      -273.0174 
   5   2.0000     -10.015769      -272.5429 
   6   2.0000      -1.215365       -33.0718 
   7   2.0000      -1.037624       -28.2352 
   8   2.0000      -0.804420       -21.8894 
   9   2.0000      -0.715745       -19.4764 
  10   2.0000      -0.602029       -16.3820 
  11   2.0000      -0.557242       -15.1633 
  12   2.0000      -0.529221       -14.4008 
  13   2.0000      -0.514152       -13.9908 
  14   2.0000      -0.496972       -13.5233 
  15   2.0000      -0.429825       -11.6961 
  16   2.0000      -0.390776       -10.6336 
  17   2.0000      -0.361609        -9.8399 
  18   2.0000      -0.348158        -9.4739 
  19   2.0000      -0.320516        -8.7217 
  20   2.0000      -0.313103        -8.5200 
  21   2.0000      -0.297578        -8.0975 
  22   2.0000      -0.287425        -7.8212 
  23   2.0000      -0.268705        -7.3118 
  24   0.0000      -0.108583        -2.9547 
  25   0.0000       0.087585         2.3833 
  26   0.0000       0.096561         2.6276 
  27   0.0000       0.140695         3.8285 
  28   0.0000       0.144132         3.9220 
  29   0.0000       0.153148         4.1674 
  30   0.0000       0.153954         4.1893 
  31   0.0000       0.181078         4.9274 
  32   0.0000       0.195804         5.3281 
  33   0.0000       0.199354         5.4247 
  34   0.0000       0.219480         5.9724 
*Only the first 10 virtual orbitals were printed.

                    ********************************
                    * MULLIKEN POPULATION ANALYSIS *
                    ********************************

-----------------------
MULLIKEN ATOMIC CHARGES
-----------------------
   0 C :   -0.509582
   1 C :   -0.187032
   2 C :   -0.362058
   3 N :    0.288262
   4 O :   -0.258181
   5 O :   -0.221923
   6 H :    0.160389
   7 H :    0.166114
   8 H :    0.160023
   9 H :    0.163145
  10 H :    0.163405
  11 H :    0.218665
  12 H :    0.218772
Sum of atomic charges:   -0.0000000

--------------------------------
MULLIKEN REDUCED ORBITAL CHARGES
--------------------------------
  0 C s       :     3.344857  s :     3.344857
      pz      :     1.091761  p :     3.137933
      px      :     0.963407
      py      :     1.082765
      dz2     :     0.006879  d :     0.026791
      dxz     :     0.004058
      dyz     :     0.003349
      dx2y2   :     0.006165
      dxy     :     0.006340

  1 C s       :     3.157703  s :     3.157703
      pz      :     1.074853  p :     2.993110
      px      :     0.909954
      py      :     1.008303
      dz2     :     0.008767  d :     0.036219
      dxz     :     0.005966
      dyz     :     0.004632
      dx2y2   :     0.007882
      dxy     :     0.008971

  2 C s       :     3.379734  s :     3.379734
      pz      :     1.096736  p :     2.939880
      px      :     0.796209
      py      :     1.046935
      dz2     :     0.010337  d :     0.042443
      dxz     :     0.005362
      dyz     :     0.004535
      dx2y2   :     0.013052
      dxy     :     0.009157

  3 N s       :     3.233001  s :     3.233001
      pz      :     0.999937  p :     2.944808
      px      :     1.028581
      py      :     0.916291
      dz2     :     0.077526  d :     0.533928
      dxz     :     0.072540
      dyz     :     0.078221
      dx2y2   :     0.153491
      dxy     :     0.152150

  4 O s       :     3.864283  s :     3.864283
      pz      :     1.428685  p :     4.359673
      px      :     1.461085
      py      :     1.469904
      dz2     :     0.007700  d :     0.034225
      dxz     :     0.007715
      dyz     :     0.002694
      dx2y2   :     0.007584
      dxy     :     0.008533

  5 O s       :     3.859375  s :     3.859375
      pz      :     1.339132  p :     4.318165
      px      :     1.774468
      py      :     1.204565
      dz2     :     0.013674  d :     0.044384
      dxz     :     0.003233
      dyz     :     0.010789
      dx2y2   :     0.007695
      dxy     :     0.008993

  6 H s       :     0.821315  s :     0.821315
      pz      :     0.010822  p :     0.018296
      px      :     0.003722
      py      :     0.003751

  7 H s       :     0.815476  s :     0.815476
      pz      :     0.004740  p :     0.018410
      px      :     0.007251
      py      :     0.006419

  8 H s       :     0.821676  s :     0.821676
      pz      :     0.004954  p :     0.018301
      px      :     0.003637
      py      :     0.009710

  9 H s       :     0.818793  s :     0.818793
      pz      :     0.004652  p :     0.018062
      px      :     0.003409
      py      :     0.010001

 10 H s       :     0.818541  s :     0.818541
      pz      :     0.011079  p :     0.018054
      px      :     0.003476
      py      :     0.003499

 11 H s       :     0.763224  s :     0.763224
      pz      :     0.011921  p :     0.018111
      px      :     0.002618
      py      :     0.003573

 12 H s       :     0.763114  s :     0.763114
      pz      :     0.004830  p :     0.018114
      px      :     0.002524
      py      :     0.010760


------------------------
MULLIKEN OVERLAP CHARGES
------------------------
B(  0-C ,  1-C ) :   0.4201 B(  0-C ,  2-C ) :  -0.1627 B(  0-C ,  6-H ) :   0.8485 
B(  0-C ,  7-H ) :   0.8083 B(  0-C ,  8-H ) :   0.8470 B(  1-C ,  2-C ) :   0.4516 
B(  1-C ,  3-N ) :  -0.1508 B(  1-C ,  6-H ) :  -0.0830 B(  1-C ,  7-H ) :  -0.0775 
B(  1-C ,  8-H ) :  -0.0816 B(  1-C ,  9-H ) :   0.8410 B(  1-C , 10-H ) :   0.8387 
B(  1-C , 11-H ) :  -0.0612 B(  1-C , 12-H ) :  -0.0595 B(  2-C ,  3-N ) :   0.6764 
B(  2-C ,  4-O ) :  -0.0658 B(  2-C ,  5-O ) :  -0.1284 B(  2-C ,  9-H ) :  -0.0665 
B(  2-C , 10-H ) :  -0.0645 B(  2-C , 11-H ) :   0.7808 B(  2-C , 12-H ) :   0.7781 
B(  3-N ,  4-O ) :   0.9894 B(  3-N ,  5-O ) :   1.0167 B(  4-O ,  5-O ) :  -0.1086 
B(  6-H ,  8-H ) :  -0.0526 B(  9-H , 10-H ) :  -0.0535 


                     *******************************
                     * LOEWDIN POPULATION ANALYSIS *
                     *******************************

----------------------
LOEWDIN ATOMIC CHARGES
----------------------
   0 C :   -0.419167
   1 C :   -0.271339
   2 C :    0.039416
   3 N :   -0.520350
   4 O :   -0.047919
   5 O :   -0.039004
   6 H :    0.157166
   7 H :    0.159155
   8 H :    0.157119
   9 H :    0.168730
  10 H :    0.168644
  11 H :    0.223687
  12 H :    0.223861

-------------------------------
LOEWDIN REDUCED ORBITAL CHARGES
-------------------------------
  0 C s       :     2.969624  s :     2.969624
      pz      :     1.158906  p :     3.387094
      px      :     1.077121
      py      :     1.151066
      dz2     :     0.016927  d :     0.062449
      dxz     :     0.008593
      dyz     :     0.008210
      dx2y2   :     0.014065
      dxy     :     0.014654

  1 C s       :     2.932440  s :     2.932440
      pz      :     1.133706  p :     3.261116
      px      :     1.026393
      py      :     1.101018
      dz2     :     0.020339  d :     0.077783
      dxz     :     0.011186
      dyz     :     0.010398
      dx2y2   :     0.017083
      dxy     :     0.018777

  2 C s       :     2.852790  s :     2.852790
      pz      :     1.083347  p :     3.015777
      px      :     0.874753
      py      :     1.057676
      dz2     :     0.023399  d :     0.092018
      dxz     :     0.011045
      dyz     :     0.009567
      dx2y2   :     0.027819
      dxy     :     0.020187

  3 N s       :     2.958344  s :     2.958344
      pz      :     1.029606  p :     3.295122
      px      :     1.164927
      py      :     1.100589
      dz2     :     0.186355  d :     1.266883
      dxz     :     0.194498
      dyz     :     0.210215
      dx2y2   :     0.343115
      dxy     :     0.332702

  4 O s       :     3.462971  s :     3.462971
      pz      :     1.380321  p :     4.336455
      px      :     1.477276
      py      :     1.478858
      dz2     :     0.034403  d :     0.248494
      dxz     :     0.046043
      dyz     :     0.034631
      dx2y2   :     0.072269
      dxy     :     0.061148

  5 O s       :     3.456633  s :     3.456633
      pz      :     1.316535  p :     4.318869
      px      :     1.697096
      py      :     1.305238
      dz2     :     0.040682  d :     0.263502
      dxz     :     0.026341
      dyz     :     0.068476
      dx2y2   :     0.061392
      dxy     :     0.066610

  6 H s       :     0.798871  s :     0.798871
      pz      :     0.027250  p :     0.043963
      px      :     0.008367
      py      :     0.008346

  7 H s       :     0.796774  s :     0.796774
      pz      :     0.010997  p :     0.044071
      px      :     0.017392
      py      :     0.015683

  8 H s       :     0.798918  s :     0.798918
      pz      :     0.011698  p :     0.043963
      px      :     0.008154
      py      :     0.024110

  9 H s       :     0.787784  s :     0.787784
      pz      :     0.011244  p :     0.043486
      px      :     0.007659
      py      :     0.024583

 10 H s       :     0.787867  s :     0.787867
      pz      :     0.027598  p :     0.043488
      px      :     0.007866
      py      :     0.008024

 11 H s       :     0.734206  s :     0.734206
      pz      :     0.028797  p :     0.042107
      px      :     0.005218
      py      :     0.008093

 12 H s       :     0.734025  s :     0.734025
      pz      :     0.011527  p :     0.042114
      px      :     0.005115
      py      :     0.025472


---------------------------------
LOEWDIN BOND ORDERS (THRESH 0.050000)
---------------------------------
B(  0-C ,  1-C ) :   1.1351 B(  0-C ,  2-C ) :   0.0811 B(  0-C ,  6-H ) :   0.9262 
B(  0-C ,  7-H ) :   0.9255 B(  0-C ,  8-H ) :   0.9262 B(  1-C ,  2-C ) :   1.0314 
B(  1-C ,  3-N ) :   0.1253 B(  1-C ,  5-O ) :   0.0728 B(  1-C ,  9-H ) :   0.8826 
B(  1-C , 10-H ) :   0.8828 B(  2-C ,  3-N ) :   1.1414 B(  2-C ,  4-O ) :   0.1937 
B(  2-C ,  5-O ) :   0.1760 B(  2-C , 11-H ) :   0.7876 B(  2-C , 12-H ) :   0.7874 
B(  3-N ,  4-O ) :   2.6312 B(  3-N ,  5-O ) :   2.6514 B(  3-N , 11-H ) :   0.0966 
B(  3-N , 12-H ) :   0.0967 B(  4-O ,  5-O ) :   0.5882 

------------------------------------------
LOEWDIN REDUCED ORBITAL POPULATIONS PER MO
-------------------------------------------
THRESHOLD FOR PRINTING IS 0.1%%
                      0         1         2         3         4         5   
                 -18.99775 -18.99318 -14.39862 -10.08048 -10.03321 -10.01577
                   2.00000   2.00000   2.00000   2.00000   2.00000   2.00000
                  --------  --------  --------  --------  --------  --------
 0 C  s               0.0       0.0       0.0       0.0       0.0      99.7
 1 C  s               0.0       0.0       0.0       0.0      99.7       0.0
 2 C  s               0.0       0.0       0.0      99.4       0.0       0.0
 3 N  s               0.0       0.0      99.4       0.0       0.0       0.0
 3 N  dx2y2           0.0       0.0       0.0       0.1       0.0       0.0
 4 O  s               0.0      99.8       0.0       0.0       0.0       0.0
 5 O  s              99.8       0.0       0.0       0.0       0.0       0.0

                      6         7         8         9        10        11   
                  -1.21537  -1.03762  -0.80442  -0.71574  -0.60203  -0.55724
                   2.00000   2.00000   2.00000   2.00000   2.00000   2.00000
                  --------  --------  --------  --------  --------  --------
 0 C  s               0.0       0.0       3.3      24.7      15.5       4.1
 0 C  pz              0.0       0.0       0.0       0.1       0.0       0.5
 0 C  px              0.0       0.0       1.6       1.3       4.0       2.8
 0 C  py              0.0       0.0       0.1       0.3       0.2       1.7
 1 C  s               0.2       0.0      12.2      17.8       5.0       9.4
 1 C  pz              0.0       0.0       0.5       0.0       0.0       1.3
 1 C  px              0.5       0.1       0.9       5.0       7.9       0.4
 1 C  py              0.0       0.0       1.3       0.1       0.1       4.0
 1 C  dxy             0.0       0.0       0.0       0.1       0.1       0.0
 2 C  s               2.0       0.0      25.1       0.8       4.5       4.2
 2 C  pz              0.1       0.2       0.2       0.2       0.0       2.1
 2 C  px              3.3       0.2       0.6       8.4       5.4       0.4
 2 C  py              0.4       0.5       0.7       0.5       0.1       6.3
 2 C  dx2y2           0.1       0.0       0.1       0.0       0.1       0.0
 2 C  dxy             0.0       0.0       0.0       0.2       0.2       0.0
 3 N  s              32.5       0.0       3.1       2.8       6.0       2.9
 3 N  pz              0.1       8.2       0.5       0.2       0.0       0.2
 3 N  px              2.7       4.3      19.0       6.9       0.4       1.4
 3 N  py              0.4      23.2       2.2       0.8       0.1       0.8
 3 N  dz2             0.3       0.1       0.2       0.1       0.6       0.1
 3 N  dxz             0.1       0.7       0.2       0.2       0.1       0.1
 3 N  dyz             1.4       0.3       0.2       0.2       0.9       1.5
 3 N  dx2y2           0.1       1.5       1.4       0.0       0.1       0.8
 3 N  dxy             0.2       1.9       0.8       0.4       0.1       0.4
 4 O  s              17.2      26.2       2.9       2.8       7.0       3.0
 4 O  pz              1.1       0.3       0.1       0.0       0.7       1.2
 4 O  px              3.2       2.2       1.7       1.5       4.3       0.8
 4 O  py              2.8       0.6       0.2       0.0       1.7       3.4
 4 O  dz2             0.2       0.0       0.2       0.1       0.1       0.0
 4 O  dxz             0.5       0.1       0.0       0.1       0.1       0.1
 4 O  dyz             0.5       0.2       0.1       0.0       0.0       0.1
 4 O  dx2y2           0.0       0.3       1.2       0.5       0.1       0.1
 4 O  dxy             1.3       0.2       0.1       0.1       0.3       0.2
 5 O  s              18.5      24.7       3.2       1.8       5.3       9.5
 5 O  pz              1.9       0.6       0.1       0.1       1.4       3.0
 5 O  px              0.0       0.5       1.8       0.6       0.1       0.1
 5 O  py              5.6       1.8       0.3       0.4       4.4       8.8
 5 O  dxz             0.0       0.1       0.4       0.1       0.0       0.0
 5 O  dyz             1.4       0.3       0.1       0.1       0.2       0.2
 5 O  dx2y2           1.0       0.2       0.0       0.2       0.3       0.1
 5 O  dxy             0.0       0.3       1.2       0.4       0.0       0.0
 6 H  s               0.0       0.0       0.4       4.1       4.6       2.3
 6 H  pz              0.0       0.0       0.0       0.3       0.4       0.2
 7 H  s               0.0       0.0       0.4       4.1       5.4       1.4
 7 H  px              0.0       0.0       0.0       0.2       0.2       0.0
 7 H  py              0.0       0.0       0.0       0.1       0.2       0.1
 8 H  s               0.0       0.0       0.4       4.1       4.6       2.3
 8 H  py              0.0       0.0       0.0       0.3       0.3       0.1
 9 H  s               0.0       0.0       1.4       2.8       1.6       4.6
 9 H  py              0.0       0.0       0.1       0.2       0.1       0.3
10 H  s               0.0       0.0       1.4       2.8       1.6       4.6
10 H  pz              0.0       0.0       0.1       0.2       0.1       0.4
11 H  s               0.1       0.0       3.4       0.1       1.3       3.5
11 H  pz              0.0       0.0       0.4       0.0       0.1       0.2
12 H  s               0.1       0.0       3.4       0.1       1.4       3.6
12 H  py              0.0       0.0       0.3       0.0       0.1       0.1

                     12        13        14        15        16        17   
                  -0.52922  -0.51415  -0.49697  -0.42983  -0.39078  -0.36161
                   2.00000   2.00000   2.00000   2.00000   2.00000   2.00000
                  --------  --------  --------  --------  --------  --------
 0 C  s               0.0       0.3       0.1       0.0       0.0       0.0
 0 C  pz              0.1       0.2       0.2      11.6       6.6      19.1
 0 C  px              0.0       0.8       0.1       0.0       1.8       0.0
 0 C  py              0.0       0.7       0.7       3.8      19.6       6.3
 0 C  dz2             0.0       0.0       0.0       0.0       0.1       0.1
 0 C  dyz             0.0       0.0       0.0       0.0       0.1       0.1
 1 C  s               0.0       0.1       0.8       0.0       0.1       0.0
 1 C  pz              1.4       1.5       0.8      21.4       3.4       1.5
 1 C  px              0.0       0.0       0.3       0.0       5.9       0.0
 1 C  py              0.5       4.4       2.4       7.0       9.6       0.5
 1 C  dxz             0.0       0.0       0.0       0.0       0.0       0.2
 2 C  s               0.0       3.5       0.7       0.0       0.3       0.0
 2 C  pz              8.7       1.9       0.1      11.1       4.3      18.4
 2 C  px              0.0       9.7       1.3       0.0       2.5       0.0
 2 C  py              2.9       6.5       0.3       3.6      12.4       5.8
 2 C  dz2             0.0       0.1       0.0       0.0       0.1       0.3
 2 C  dxz             0.1       0.0       0.0       0.1       0.0       0.0
 2 C  dyz             0.0       0.0       0.0       0.0       0.0       0.1
 2 C  dx2y2           0.0       0.1       0.1       0.0       0.1       0.1
 2 C  dxy             0.0       0.1       0.0       0.0       0.1       0.0
 3 N  s               0.0       0.2       0.0       0.0       0.0       0.0
 3 N  pz             33.4       0.0       4.2       3.2       0.3       0.6
 3 N  px              0.0      17.4       0.6       0.0       0.1       0.0
 3 N  py             11.1       0.3      12.3       1.1       0.9       0.2
 3 N  dz2             0.0       0.0       0.1       0.1       0.0       0.7
 3 N  dxz             0.0       1.3       0.4       1.4       0.3       1.8
 3 N  dyz             0.0       0.5       0.5       0.1       0.0       0.4
 3 N  dx2y2           0.0       0.4       2.4       0.1       0.2       0.3
 3 N  dxy             0.0       3.8       1.1       0.5       0.9       0.5
 4 O  s               0.0       6.1       7.4       0.0       0.1       0.0
 4 O  pz             11.8       3.7       1.2       3.0       0.2       1.0
 4 O  px              0.0       2.2      20.0       0.0       0.6       0.0
 4 O  py              3.9      10.6       2.7       1.0       0.5       0.4
 4 O  dz2             0.7       0.0       0.0       0.1       0.0       0.0
 4 O  dxz             1.1       0.0       0.0       0.0       0.0       0.0
 4 O  dyz             0.2       0.1       0.0       0.0       0.0       0.0
 4 O  dx2y2           0.2       0.2       0.1       0.0       0.0       0.0
 4 O  dxy             0.4       0.1       0.1       0.0       0.0       0.0
 5 O  s               0.0       0.6       8.5       0.0       0.2       0.0
 5 O  pz             12.3       0.8       6.2       2.7       0.5       3.7
 5 O  px              0.0       7.0       1.4       0.0       0.6       0.0
 5 O  py              4.2       1.8      19.0       0.9       1.4       1.3
 5 O  dz2             1.3       0.0       0.0       0.1       0.0       0.0
 5 O  dxz             0.1       0.1       0.0       0.1       0.0       0.0
 5 O  dyz             0.6       0.0       0.2       0.0       0.0       0.0
 5 O  dx2y2           0.5       0.1       0.1       0.0       0.0       0.0
 5 O  dxy             0.0       0.4       0.0       0.0       0.0       0.0
 6 H  s               0.0       0.0       0.2       3.3       3.1       7.6
 6 H  pz              0.0       0.0       0.0       0.1       0.1       0.1
 7 H  s               0.0       0.7       0.0       0.0       8.4       0.0
 7 H  pz              0.0       0.0       0.0       0.1       0.0       0.1
 7 H  px              0.0       0.0       0.0       0.0       0.2       0.0
 8 H  s               0.0       0.0       0.2       3.3       3.2       7.4
 8 H  pz              0.0       0.0       0.0       0.0       0.2       0.0
 8 H  py              0.0       0.0       0.0       0.1       0.0       0.2
 9 H  s               0.3       0.7       1.0       5.7       1.4       0.8
 9 H  py              0.0       0.0       0.0       0.3       0.0       0.0
10 H  s               0.3       0.7       1.0       5.7       1.4       0.7
10 H  pz              0.0       0.0       0.1       0.2       0.0       0.0
11 H  s               1.8       4.5       0.3       3.7       3.5       9.3
11 H  pz              0.1       0.3       0.0       0.1       0.1       0.1
12 H  s               1.8       4.5       0.3       3.7       3.5       9.3
12 H  pz              0.0       0.1       0.0       0.0       0.2       0.0
12 H  py              0.1       0.2       0.0       0.1       0.0       0.2

                     18        19        20        21        22        23   
                  -0.34816  -0.32052  -0.31310  -0.29758  -0.28742  -0.26870
                   2.00000   2.00000   2.00000   2.00000   2.00000   2.00000
                  --------  --------  --------  --------  --------  --------
 0 C  s               0.3       0.3       0.0       0.0       0.0       0.1
 0 C  pz              0.1       6.3       7.4       5.4       0.3       0.0
 0 C  px             37.4       0.5       0.0       0.0       1.2       2.2
 0 C  py              0.1      19.1       2.4       1.8       0.7       0.0
 0 C  dz2             0.0       0.2       0.2       0.2       0.0       0.0
 0 C  dx2y2           0.1       0.3       0.1       0.1       0.0       0.0
 0 C  dxy             0.3       0.1       0.0       0.0       0.1       0.0
 1 C  s               0.5       0.5       0.0       0.0       0.0       0.3
 1 C  pz              0.6       5.1       7.9      11.1       0.3       0.1
 1 C  px             25.0       0.8       0.0       0.0       1.0       3.4
 1 C  py              2.4      15.6       2.6       3.7       0.6       0.2
 1 C  dz2             0.0       0.2       0.2       0.3       0.0       0.0
 1 C  dxz             0.1       0.1       0.1       0.0       0.0       0.0
 1 C  dyz             0.0       0.0       0.1       0.2       0.0       0.0
 1 C  dx2y2           0.0       0.4       0.1       0.1       0.0       0.0
 1 C  dxy             0.3       0.1       0.0       0.0       0.0       0.1
 2 C  s               1.2       0.9       0.0       0.0       0.1       0.0
 2 C  pz              0.8       2.4       0.8       2.2       0.2       0.5
 2 C  px              0.6       1.4       0.0       0.0       8.7       1.0
 2 C  py              2.7       6.9       0.3       0.8       0.7       1.4
 2 C  dz2             0.0       0.1       0.1       0.2       0.0       0.0
 2 C  dx2y2           0.2       0.2       0.0       0.1       0.1       0.0
 2 C  dxy             0.0       0.0       0.0       0.0       0.0       0.1
 3 N  s               0.2       0.0       0.0       0.0       0.6       0.0
 3 N  pz              0.1       0.1       0.0       0.0       0.1       0.2
 3 N  px              1.0       0.3       0.0       0.0       3.8       0.1
 3 N  py              0.3       0.2       0.0       0.0       0.3       0.6
 3 N  dz2             0.3       0.1       4.5       1.8       0.2       0.0
 3 N  dxz             0.0       0.0       0.4       1.1       1.3       0.3
 3 N  dyz             0.3       0.1       1.9       0.7       0.9       0.5
 3 N  dx2y2           2.4       0.9       1.4       0.5       2.9       1.6
 3 N  dxy             0.0       0.0       0.2       0.4       4.5       0.8
 4 O  s               0.0       0.0       0.0       0.0       0.5       0.1
 4 O  pz              1.7       0.2      15.2      19.1       0.6       8.1
 4 O  px              1.8       0.6       0.0       0.0      18.8      16.0
 4 O  py              5.1       0.7       5.1       6.5       2.3      26.3
 4 O  dz2             0.0       0.0       0.1       0.1       0.1       0.0
 4 O  dxz             0.0       0.0       0.0       0.1       0.0       0.0
 4 O  dyz             0.0       0.0       0.0       0.0       0.0       0.3
 4 O  dx2y2           0.0       0.0       0.0       0.0       0.1       0.7
 5 O  s               0.1       0.1       0.0       0.0       0.3       0.2
 5 O  pz              0.2       0.2      18.9      11.7       0.0       1.5
 5 O  px              0.2       0.8       0.0       0.0      44.3      27.4
 5 O  py              0.4       0.7       6.3       3.9       0.4       3.4
 5 O  dz2             0.1       0.0       0.2       0.1       0.0       0.0
 5 O  dxz             0.0       0.0       0.1       0.0       0.1       0.2
 5 O  dx2y2           0.2       0.1       0.1       0.0       0.0       0.0
 5 O  dxy             0.0       0.1       0.0       0.0       0.2       0.5
 6 H  s               0.3       5.0       4.8       4.1       0.2       0.0
 6 H  px              0.3       0.0       0.0       0.0       0.0       0.0
 6 H  py              0.0       0.1       0.0       0.0       0.0       0.0
 7 H  s               9.4       7.9       0.0       0.0       1.7       0.5
 7 H  px              0.0       0.2       0.0       0.0       0.0       0.0
 7 H  py              0.2       0.0       0.0       0.0       0.0       0.0
 8 H  s               0.4       5.0       4.7       4.1       0.2       0.0
 8 H  pz              0.0       0.2       0.0       0.0       0.0       0.0
 8 H  px              0.3       0.0       0.0       0.0       0.0       0.0
 9 H  s               0.5       5.6       5.5       7.4       0.1       0.0
 9 H  pz              0.0       0.2       0.0       0.0       0.0       0.0
 9 H  px              0.2       0.0       0.0       0.0       0.0       0.0
 9 H  py              0.0       0.0       0.1       0.1       0.0       0.0
10 H  s               0.5       5.5       5.6       7.3       0.1       0.0
10 H  px              0.2       0.0       0.0       0.0       0.0       0.0
10 H  py              0.0       0.1       0.0       0.1       0.0       0.0
11 H  s               0.0       1.3       1.0       2.0       0.3       0.3
12 H  s               0.0       1.3       1.0       2.0       0.3       0.3

                     24        25        26        27        28        29   
                  -0.10858   0.08758   0.09656   0.14069   0.14413   0.15315
                   0.00000   0.00000   0.00000   0.00000   0.00000   0.00000
                  --------  --------  --------  --------  --------  --------
 0 C  s               0.0      13.7       4.9       6.5      14.0       0.0
 0 C  pz              0.0       0.0       0.4       1.8       1.3      11.6
 0 C  px              0.0       1.1       2.2       0.6      20.9       0.2
 0 C  py              0.0       0.0       1.3       5.4       5.0       2.7
 0 C  dz2             0.0       0.0       0.1       0.8       0.1       0.2
 0 C  dxz             0.0       0.1       0.0       0.1       0.2       0.4
 0 C  dyz             0.0       0.0       0.1       0.4       0.0       0.1
 0 C  dx2y2           0.0       0.1       0.0       0.7       0.2       0.0
 0 C  dxy             0.0       0.4       0.0       0.1       0.6       0.2
 1 C  s               0.0      12.3       0.3       9.1      10.6       0.0
 1 C  pz              0.0       0.4       0.9       0.0       3.0      11.8
 1 C  px              0.0       0.3       6.3       4.5       2.2       0.1
 1 C  py              0.0       1.2       2.3       0.0       9.5       2.6
 1 C  dz2             0.0       0.2       0.0       0.0       0.1       1.9
 1 C  dxz             0.0       0.0       0.1       0.1       0.0       0.0
 1 C  dyz             0.0       0.0       0.4       0.2       0.3       0.7
 1 C  dx2y2           0.0       0.4       1.0       0.1       0.0       0.4
 1 C  dxy             0.0       0.0       0.3       0.4       0.1       0.0
 2 C  s               0.0      11.6       9.5       3.0       3.2       0.0
 2 C  pz              0.6       0.2       0.9       3.1       1.3      20.3
 2 C  px              0.0       5.7      24.5       3.5       1.1       0.1
 2 C  py              0.2       0.5       3.3       9.5       4.0       3.7
 2 C  dz2             0.3       0.0       0.9       0.9       0.0       1.0
 2 C  dxz             0.5       0.3       0.1       0.0       0.1       0.0
 2 C  dyz             0.2       0.2       0.1       0.6       0.0       0.5
 2 C  dx2y2           0.1       0.2       1.5       0.5       0.0       0.2
 2 C  dxy             0.1       0.9       0.7       0.0       0.2       0.1
 3 N  s               0.0       5.1       3.6       8.7       0.4       0.0
 3 N  pz             26.6       0.2       0.2       0.1       0.2       0.6
 3 N  px              0.0       1.9       3.7       4.4       0.1       0.0
 3 N  py              8.9       0.7       0.6       0.5       0.5       0.3
 3 N  dz2             0.1       3.8       1.7       1.4       0.0       0.0
 3 N  dxz             2.3       0.1       0.0       0.0       0.0       0.4
 3 N  dyz             0.1       5.6       2.4       1.1       0.1       0.1
 3 N  dx2y2           0.1       0.4       0.3       0.9       0.2       0.1
 3 N  dxy             0.7       0.5       0.0       0.1       0.0       0.0
 4 O  s               0.0       0.6       0.7       4.1       0.1       0.0
 4 O  pz             16.6       0.2       0.2       0.2       0.2       0.7
 4 O  px              0.0       0.8       0.3       2.6       0.2       0.0
 4 O  py              5.6       0.6       0.7       0.5       0.6       0.2
 4 O  dz2             1.0       0.3       0.7       0.0       0.0       0.0
 4 O  dxz             1.8       0.1       0.7       0.0       0.1       0.4
 4 O  dyz             0.3       0.1       0.3       0.0       0.0       0.1
 4 O  dx2y2           0.2       0.3       1.0       0.1       0.0       0.0
 4 O  dxy             0.7       0.3       1.7       0.1       0.3       0.1
 5 O  s               0.0       2.0       0.4       2.4       1.1       0.0
 5 O  pz             17.9       0.5       0.0       0.4       0.4       0.5
 5 O  px              0.0       0.7       0.1       0.2       0.5       0.0
 5 O  py              6.0       1.7       0.1       1.3       1.2       0.1
 5 O  dz2             2.3       0.4       0.2       0.0       0.0       0.1
 5 O  dxz             0.3       0.0       0.0       0.0       0.2       0.4
 5 O  dyz             1.1       0.2       1.6       0.1       0.0       0.0
 5 O  dx2y2           0.8       0.5       0.4       0.0       0.0       0.0
 5 O  dxy             0.1       0.0       0.1       0.1       0.5       0.0
 6 H  s               0.0       1.3       0.1       3.9       1.9       1.9
 6 H  pz              0.0       0.8       0.1       1.1       1.2       0.8
 6 H  px              0.0       0.1       0.0       0.0       0.5       0.1
 6 H  py              0.0       0.0       0.1       0.3       0.0       0.1
 7 H  s               0.0       2.9       1.5       2.3       0.4       0.0
 7 H  pz              0.0       0.2       0.1       0.1       0.0       0.0
 7 H  px              0.0       0.2       0.5       0.2       0.6       0.0
 7 H  py              0.0       0.7       0.2       0.2       0.0       0.0
 8 H  s               0.0       1.3       0.1       3.9       2.0       1.6
 8 H  pz              0.0       0.1       0.0       1.0       0.3       0.0
 8 H  px              0.0       0.1       0.0       0.0       0.4       0.1
 8 H  py              0.0       0.6       0.2       0.4       1.0       0.7
 9 H  s               0.0       2.2       0.1       0.6       0.4       5.8
 9 H  pz              0.0       0.4       0.2       0.4       0.0       0.0
 9 H  px              0.0       0.0       0.3       0.2       0.2       0.0
 9 H  py              0.0       0.8       0.0       0.3       1.3       1.9
10 H  s               0.0       2.2       0.1       0.7       0.4       7.8
10 H  pz              0.0       1.2       0.0       0.7       0.8       2.0
10 H  px              0.0       0.0       0.3       0.1       0.2       0.1
10 H  py              0.0       0.0       0.3       0.1       0.4       0.2
11 H  s               2.2       2.3       3.4       0.2       0.8       5.5
11 H  pz              0.0       0.6       1.5       0.0       0.5       2.1
11 H  px              0.0       0.7       0.7       0.0       0.1       0.0
11 H  py              0.0       0.1       0.2       0.9       0.0       0.3
12 H  s               2.2       2.3       3.4       0.3       0.9       4.2
12 H  pz              0.0       0.5       0.9       0.6       0.0       0.1
12 H  px              0.0       0.6       0.8       0.1       0.1       0.0
12 H  py              0.0       0.3       0.7       0.2       0.5       1.6

                     30        31        32        33        34        35   
                   0.15395   0.18108   0.19580   0.19935   0.21948   0.22349
                   0.00000   0.00000   0.00000   0.00000   0.00000   0.00000
                  --------  --------  --------  --------  --------  --------
 0 C  s               0.4       2.8       1.0       0.0       0.0       1.9
 0 C  pz              0.5       2.3       1.0      15.6       2.4       3.2
 0 C  px             14.2       9.8       7.3       0.0       0.0       5.7
 0 C  py              4.4       6.3       2.8       5.5       0.9       9.5
 0 C  dz2             0.1       0.0       0.1       3.1       0.0       1.7
 0 C  dxz             0.1       0.5       0.1       0.0       0.5       0.0
 0 C  dyz             0.1       0.0       0.2       1.5       0.0       1.1
 0 C  dx2y2           1.0       0.0       0.1       1.0       0.0       1.1
 0 C  dxy             0.2       1.4       0.5       0.0       0.2       0.0
 1 C  s               1.8       0.8       0.5       0.0       0.0       0.4
 1 C  pz              1.3       2.1       7.6       0.1      15.2       0.3
 1 C  px              2.2       6.6       2.9       0.0       0.0       6.3
 1 C  py              7.8       6.0      22.4       0.1       5.0       1.5
 1 C  dz2             0.5       0.0       1.3       0.1       0.5       0.0
 1 C  dxz             0.0       0.4       0.3       1.4       0.2       0.0
 1 C  dyz             0.3       0.0       1.2       0.0       0.2       0.0
 1 C  dx2y2           1.1       0.0       0.6       0.0       0.2       0.2
 1 C  dxy             0.0       1.2       0.7       0.4       0.0       0.0
 2 C  s               0.9       0.2       8.9       0.0       0.0       2.8
 2 C  pz              3.5       2.6       0.8       5.6      19.7       0.8
 2 C  px              4.3       6.9       3.8       0.0       0.0       1.6
 2 C  py             20.2       7.8       2.1       1.8       6.9       2.3
 2 C  dz2             0.0       0.3       0.1       1.2       0.1       0.3
 2 C  dxz             0.2       0.4       0.0       0.0       0.6       0.0
 2 C  dyz             0.1       0.7       0.0       0.5       0.1       0.6
 2 C  dx2y2           0.7       0.0       0.3       0.4       0.1       0.0
 2 C  dxy             0.5       1.0       0.0       0.0       0.2       0.1
 3 N  s               0.9       0.9       5.2       0.0       0.0       4.0
 3 N  pz              0.5       0.2       0.3       1.4       1.1       0.1
 3 N  px              1.9       0.1       2.3       0.0       0.0       4.4
 3 N  py              0.8       0.5       1.2       0.4       0.4       0.2
 3 N  dz2             1.1       1.1       0.1       0.6       0.1       0.1
 3 N  dxz             0.5       0.1       0.0       1.1       1.9       0.1
 3 N  dyz             0.6       3.4       0.6       0.2       0.0       0.3
 3 N  dx2y2           0.9       0.1       0.8       0.1       0.0       0.1
 3 N  dxy             1.5       0.3       0.2       0.4       0.6       0.2
 4 O  s               1.6       0.3       0.5       0.0       0.0       4.6
 4 O  pz              0.2       0.5       0.1       0.2       0.6       0.5
 4 O  px              1.9       0.1       1.9       0.0       0.0       3.6
 4 O  py              0.7       1.5       0.3       0.1       0.2       1.4
 4 O  dz2             0.0       0.4       0.5       0.0       0.0       0.1
 4 O  dxz             0.0       0.5       0.3       0.2       0.2       0.1
 4 O  dyz             0.3       0.3       0.1       0.0       0.0       0.1
 4 O  dx2y2           0.2       0.1       0.9       0.0       0.0       0.0
 4 O  dxy             0.1       1.6       0.6       0.1       0.1       0.2
 5 O  s               0.1       0.2       1.7       0.0       0.0       0.9
 5 O  pz              0.0       0.6       0.5       0.8       0.8       0.1
 5 O  px              1.4       0.9       0.6       0.0       0.0       1.1
 5 O  py              0.1       1.7       1.3       0.3       0.3       0.3
 5 O  dz2             0.7       0.3       0.0       0.0       0.4       0.1
 5 O  dxz             0.1       0.4       0.2       1.3       1.1       0.1
 5 O  dyz             0.4       0.1       0.1       0.0       0.1       0.1
 5 O  dx2y2           0.5       1.2       0.0       0.0       0.1       0.1
 5 O  dxy             0.7       1.0       0.3       0.5       0.4       0.2
 6 H  s               0.0       0.1       0.1      16.2       0.2       7.9
 6 H  pz              0.0       0.0       0.0       2.1       0.0       2.1
 6 H  px              0.4       0.4       0.2       0.0       0.1       0.0
 6 H  py              0.0       0.0       0.3       1.0       0.1       1.1
 7 H  s               0.8      10.0       0.9       0.0       0.0       3.8
 7 H  pz              0.0       0.6       0.0       2.0       0.2       0.0
 7 H  px              0.6       1.6       0.0       0.0       0.0       1.2
 7 H  py              0.2       1.6       0.2       0.6       0.1       0.0
 8 H  s               0.3       0.0       0.2      16.1       0.4       7.8
 8 H  pz              0.0       0.0       0.2       0.0       0.0       2.7
 8 H  px              0.3       0.5       0.2       0.0       0.1       0.0
 8 H  py              0.2       0.0       0.3       2.9       0.1       0.5
 9 H  s               3.4       0.6       3.0       0.1       7.1       0.7
 9 H  pz              0.9       0.1       1.5       0.0       0.0       0.1
 9 H  px              0.0       0.4       0.2       0.7       0.0       0.0
 9 H  py              0.3       0.2       0.0       0.0       2.8       0.2
10 H  s               1.5       0.6       2.8       0.1       7.4       0.5
10 H  pz              0.4       0.2       0.2       0.0       2.5       0.2
10 H  px              0.0       0.4       0.2       0.7       0.0       0.0
10 H  py              0.5       0.0       1.2       0.0       0.4       0.0
11 H  s               1.0       1.0       0.0       4.7       6.0       2.0
11 H  pz              0.6       0.0       0.2       0.6       2.3       0.7
11 H  px              0.2       0.5       0.1       0.0       0.2       0.0
11 H  py              0.1       0.6       0.0       0.4       0.2       0.4
12 H  s               2.2       1.1       0.2       4.7       5.6       2.4
12 H  pz              0.0       0.6       0.0       0.0       0.1       1.0
12 H  px              0.2       0.5       0.1       0.0       0.1       0.0
12 H  py              1.3       0.1       0.3       0.9       2.3       0.2

                     36        37        38        39        40        41   
                   0.23173   0.24081   0.24341   0.24906   0.25707   0.26892
                   0.00000   0.00000   0.00000   0.00000   0.00000   0.00000
                  --------  --------  --------  --------  --------  --------
 0 C  s               1.1       1.1       0.0       0.0       0.3       0.2
 0 C  pz              4.3       1.2      50.4       2.3       0.2       7.9
 0 C  px              3.2       3.8       0.1       0.0       9.8       6.0
 0 C  py             13.7       6.3      15.6       0.7       0.4      23.2
 0 C  dz2             0.0       0.0       0.0       0.6       0.0       0.1
 0 C  dxz             0.1       0.1       0.0       0.2       0.0       0.1
 0 C  dyz             0.3       0.1       0.0       0.3       0.0       0.4
 0 C  dx2y2           0.2       0.0       0.0       0.2       0.0       0.0
 0 C  dxy             0.4       0.5       0.0       0.0       0.2       0.2
 1 C  s               3.3       1.5       0.0       0.0       0.8       0.2
 1 C  pz              1.3       1.8       1.6      13.0       0.8       0.8
 1 C  px              9.4       4.8       0.0       0.0       3.9       0.3
 1 C  py              4.1       5.1       0.6       4.2       2.1       2.2
 1 C  dz2             0.0       0.0       0.4       1.1       0.2       0.0
 1 C  dxz             0.1       0.3       0.1       0.0       0.2       0.0
 1 C  dyz             0.2       0.0       0.2       0.5       0.0       0.0
 1 C  dx2y2           0.1       0.1       0.1       0.4       0.3       0.0
 1 C  dxy             0.2       0.8       0.0       0.0       0.6       0.0
 2 C  s               1.3       0.3       0.0       0.0       1.2       0.5
 2 C  pz              0.8       3.7       1.5      19.4       0.9       0.6
 2 C  px              0.8       3.3       0.0       0.0       1.6       1.4
 2 C  py              2.7       9.9       0.3       6.5       2.6       1.8
 2 C  dz2             0.0       0.0       0.4       0.9       0.4       0.0
 2 C  dxz             0.0       0.0       0.2       0.0       0.0       0.3
 2 C  dyz             0.2       0.0       0.1       0.4       0.1       0.2
 2 C  dx2y2           0.0       0.0       0.1       0.3       0.5       0.4
[...]
 3 N  dxz             0.3       0.1       0.1       0.5       0.3       3.0
 3 N  dyz             0.3       1.1       0.0       0.8       2.9       0.2
 3 N  dx2y2           0.5       0.8       0.1       0.6       2.8      14.7
 3 N  dxy             0.9       0.0       0.4       0.2       0.9      11.6
 4 O  s              11.1       0.0       5.4       0.0       1.6       3.9
 4 O  pz              0.0       0.1       0.1       0.1       1.3       0.6
 4 O  px              0.1       0.0       0.2       0.0       2.4       0.2
 4 O  py              0.0       0.0       0.2       0.0       4.2       1.8
 4 O  dz2             0.0       0.4       0.0       0.5       0.8       0.0
 4 O  dxz             0.0       1.1       0.0       1.0       0.1       0.0
 4 O  dyz             0.0       0.1       0.4       0.2       5.2       1.9
 4 O  dx2y2           0.0       0.1       0.5       0.1      17.0       3.1
 4 O  dxy             0.0       0.4       0.1       0.4       0.8       0.1
 5 O  s              27.6       0.0       2.9       0.0       2.0       1.1
 5 O  pz              0.1       0.3       0.0       0.3       0.3       0.4
 5 O  px              1.6       0.0       0.2       0.0       3.9       1.8
 5 O  py              0.2       0.1       0.2       0.1       0.8       1.1
 5 O  dz2             0.0       1.6       0.0       0.8       0.1       0.1
 5 O  dxz             0.6       0.0       0.0       0.1       3.3       1.7
 5 O  dyz             0.5       0.7       0.0       0.4       0.3       0.4
 5 O  dx2y2           0.4       0.5       0.0       0.3       0.8       0.0
 5 O  dxy             1.8       0.0       0.0       0.0      10.2       4.9
 6 H  s               0.1       2.2       1.5       0.6       0.0       0.0
 6 H  pz              0.1       5.1       4.2       1.5       0.0       0.0
 6 H  px              0.3       0.3       0.1       0.2       0.1       0.1
 7 H  s               3.6       0.0       1.2       0.0       0.1       0.1
 7 H  pz              1.7       0.0       0.2       0.0       0.0       0.0
 7 H  px              3.8       0.0       2.4       0.0       0.0       0.1
 7 H  py              4.7       0.0       0.4       0.0       0.1       0.1
 8 H  s               0.1       2.3       1.4       0.7       0.0       0.0
 8 H  pz              0.1       0.9       1.3       0.3       0.0       0.0
 8 H  px              0.3       0.2       0.0       0.2       0.1       0.1
 8 H  py              0.0       4.4       2.7       1.5       0.0       0.0
 9 H  s               0.0       1.8       2.2       3.9       0.1       0.0
 9 H  pz              0.0       0.4       2.4       1.1       0.1       0.0
 9 H  px              0.4       0.6       0.0       0.0       0.0       0.0
 9 H  py              0.0       3.6       4.8       8.3       0.3       0.0
10 H  s               0.0       1.8       2.4       3.7       0.1       0.0
10 H  pz              0.0       3.6       7.7       8.6       0.4       0.0
10 H  px              0.4       0.6       0.0       0.1       0.0       0.0
10 H  py              0.0       0.2       0.0       0.3       0.0       0.0
11 H  s               0.1       3.4       0.3       2.9       0.4       0.7
11 H  pz              0.1       7.2       0.8       6.7       1.6       1.7
11 H  px              0.1       0.2       0.4       0.0       0.4       0.2
11 H  py              0.2       0.4       0.0       0.4       0.1       0.1
12 H  s               0.1       3.3       0.3       3.0       0.4       0.7
12 H  pz              0.4       0.6       0.3       0.6       0.8       0.8
12 H  px              0.1       0.1       0.4       0.0       0.5       0.2
12 H  py              0.1       6.8       0.6       6.6       0.8       0.9

                    156       157       158       159       160       161   
                   4.79726   4.82957  21.91848  21.99289  22.08445  31.88335
                   0.00000   0.00000   0.00000   0.00000   0.00000   0.00000
                  --------  --------  --------  --------  --------  --------
 0 C  s               0.0       0.0      88.3       9.3       2.1       0.0
 1 C  s               0.0       0.0       8.5      90.1       1.1       0.0
 2 C  s               0.1       0.0       2.9       0.3      96.0       0.1
 3 N  s               9.9       0.6       0.0       0.0       0.2      99.5
 3 N  pz              0.7       3.6       0.0       0.0       0.0       0.0
 3 N  px              2.1       4.2       0.0       0.0       0.1       0.0
 3 N  py              2.4      10.1       0.0       0.0       0.0       0.0
 3 N  dz2             1.1       0.7       0.0       0.0       0.0       0.0
 3 N  dxz             0.2       3.9       0.0       0.0       0.0       0.0
 3 N  dyz            10.8       0.2       0.0       0.0       0.0       0.0
 3 N  dx2y2           3.7       4.7       0.0       0.0       0.0       0.0
 3 N  dxy             0.5      10.4       0.0       0.0       0.0       0.0
 4 O  s               5.6      12.6       0.0       0.0       0.0       0.1
 4 O  pz              0.6       1.6       0.0       0.0       0.0       0.0
 4 O  px              3.2       8.0       0.0       0.0       0.0       0.0
 4 O  py              1.5       4.1       0.0       0.0       0.0       0.0
 4 O  dz2             1.1       1.6       0.0       0.0       0.0       0.0
 4 O  dxz             1.1       4.7       0.0       0.0       0.0       0.0
 4 O  dyz             1.0       2.0       0.0       0.0       0.0       0.0
 4 O  dx2y2           0.7       0.7       0.0       0.0       0.0       0.0
 4 O  dxy             2.7      12.4       0.0       0.0       0.0       0.0
 5 O  s              14.4       2.7       0.0       0.0       0.0       0.1
 5 O  pz              3.6       0.9       0.0       0.0       0.0       0.0
 5 O  px              0.4       0.0       0.0       0.0       0.0       0.0
 5 O  py             10.8       2.7       0.0       0.0       0.0       0.0
 5 O  dz2             0.6       0.0       0.0       0.0       0.0       0.0
 5 O  dxz             0.3       0.0       0.0       0.0       0.0       0.0
 5 O  dyz            11.8       3.2       0.0       0.0       0.0       0.0
 5 O  dx2y2           7.6       4.2       0.0       0.0       0.0       0.0
 5 O  dxy             1.1       0.1       0.0       0.0       0.0       0.0

                    162       163   
                  43.80643  43.90552
                   0.00000   0.00000
                  --------  --------
 3 N  s               0.1       0.0
 4 O  s              57.4      42.4
 5 O  s              42.3      57.5


                      *****************************
                      * MAYER POPULATION ANALYSIS *
                      *****************************

  NA   - Mulliken gross atomic population
  ZA   - Total nuclear charge
  QA   - Mulliken gross atomic charge
  VA   - Mayer's total valence
  BVA  - Mayer's bonded valence
  FA   - Mayer's free valence

  ATOM       NA         ZA         QA         VA         BVA        FA
  0 C      6.5096     6.0000    -0.5096     3.7997     3.7997     0.0000
  1 C      6.1870     6.0000    -0.1870     3.6514     3.6514     0.0000
  2 C      6.3621     6.0000    -0.3621     3.7751     3.7751    -0.0000
  3 N      6.7117     7.0000     0.2883     4.5572     4.5572    -0.0000
  4 O      8.2582     8.0000    -0.2582     2.1774     2.1774    -0.0000
  5 O      8.2219     8.0000    -0.2219     2.2056     2.2056    -0.0000
  6 H      0.8396     1.0000     0.1604     0.9593     0.9593     0.0000
  7 H      0.8339     1.0000     0.1661     0.9564     0.9564    -0.0000
  8 H      0.8400     1.0000     0.1600     0.9594     0.9594     0.0000
  9 H      0.8369     1.0000     0.1631     0.9551     0.9551    -0.0000
 10 H      0.8366     1.0000     0.1634     0.9550     0.9550    -0.0000
 11 H      0.7813     1.0000     0.2187     0.9331     0.9331    -0.0000
 12 H      0.7812     1.0000     0.2188     0.9331     0.9331    -0.0000

  Mayer bond orders larger than 0.100000
B(  0-C ,  1-C ) :   0.8883 B(  0-C ,  6-H ) :   0.9779 B(  0-C ,  7-H ) :   0.9683 
B(  0-C ,  8-H ) :   0.9775 B(  1-C ,  2-C ) :   0.9099 B(  1-C ,  9-H ) :   0.9584 
B(  1-C , 10-H ) :   0.9578 B(  2-C ,  3-N ) :   0.9426 B(  2-C , 11-H ) :   0.9134 
B(  2-C , 12-H ) :   0.9124 B(  3-N ,  4-O ) :   1.7945 B(  3-N ,  5-O ) :   1.8228 
B(  4-O ,  5-O ) :   0.2720 

-------
TIMINGS
-------

Total SCF time: 0 days 0 hours 0 min 24 sec 

Total time                  ....      24.156 sec
Sum of individual times     ....      22.025 sec  ( 91.2%)

SCF preparation             ....       0.428 sec  (  1.8%)
Fock matrix formation       ....      19.869 sec  ( 82.3%)
  Startup                   ....       0.098 sec  (  0.5% of F)
  Split-RI-J                ....       2.693 sec  ( 13.6% of F)
  XC integration            ....      13.656 sec  ( 68.7% of F)
    XC Preparation          ....       0.000 sec  (  0.0% of XC)
    Basis function eval.    ....       2.198 sec  ( 16.1% of XC)
    Density eval.           ....       3.124 sec  ( 22.9% of XC)
    XC-Functional eval.     ....       1.767 sec  ( 12.9% of XC)
    XC-Potential eval.      ....       3.844 sec  ( 28.1% of XC)
  CPCM terms                ....       2.712 sec  ( 13.7% of F)
Diagonalization             ....       0.000 sec  (  0.0%)
Density matrix formation    ....       0.322 sec  (  1.3%)
Total Energy calculation    ....       0.060 sec  (  0.2%)
Population analysis         ....       0.089 sec  (  0.4%)
Orbital Transformation      ....       0.063 sec  (  0.3%)
Orbital Orthonormalization  ....       0.000 sec  (  0.0%)
DIIS solution               ....       1.110 sec  (  4.6%)
  MO trafo                  ....       0.000 sec  (  0.0 % of DIIS)
  Orb grad                  ....       0.000 sec  (  0.0 % of DIIS)
  Energy W gradient         ....       0.000 sec  (  0.0 % of DIIS)
  DIIS error                ....       0.010 sec  (  0.9 % of DIIS)
  DIIS work                 ....       1.041 sec  ( 93.8 % of DIIS)
  Form Q                    ....       0.000 sec  (  0.0 % of DIIS)
  Form QpQm                 ....       0.000 sec  (  0.0 % of DIIS)
  Exp/Cayley                ....       0.000 sec  (  0.0 % of DIIS)
  Orb update                ....       0.000 sec  (  0.0 % of DIIS)
  Wake-sleep                ....       0.029 sec  (  2.6 % of DIIS)
SOSCF solution              ....       0.084 sec  (  0.3%)
  MO trafo                  ....       0.051 sec  ( 61.0 % of SOSCF)
  Orb grad                  ....       0.001 sec  (  1.6 % of SOSCF)
  Rot update                ....       0.013 sec  ( 15.6 % of SOSCF)
  Step                      ....       0.018 sec  ( 21.8 % of SOSCF)
Finished LeanSCF after  24.4 sec

Maximum memory used throughout the entire LEANSCF-calculation: 17.0 MB


-------------------------------------------------------------------------------
                          DFT DISPERSION CORRECTION                            
                                                                               
                                DFTD4 V3.4.0                                   
-------------------------------------------------------------------------------
The R2SCAN3C composite method is recognized
Using three-body term ABC
Active option DFTDOPT                   ...         5   

-------------------------   ----------------
Dispersion correction           -0.002798118
-------------------------   ----------------

------------------   -----------------
gCP correction             0.012541447
------------------   -----------------

-------------------------   --------------------
FINAL SINGLE POINT ENERGY      -323.586151941168
-------------------------   --------------------


------------------------------------------------------------------------------
                              ORCA PROPERTY CALCULATIONS
------------------------------------------------------------------------------

GBWName                                 ... sp_solv.gbw
Number of atoms                         ...     13
Number of basis functions               ...    164
Max core memory                         ...   1024 MB

Electric properties:
Dipole moment                           ... YES
Quadrupole moment                       ...  NO
Static polarizability (Dipole/Dipole)   ...  NO
Static polarizability (Dipole/Quad.)    ...  NO
Static polarizability (Quad./Quad.)     ...  NO
Static polarizability (Velocity)        ...  NO

Atomic electric properties:
Dipole moment                           ...  NO
Quadrupole moment                       ...  NO
Static polarizability                   ...  NO

Choice of electric origin               ... Center of mass
Position of electric origin             ...    -0.000061     0.000005    -0.000001

General magnetic properties:
Magnetizability                         ...  NO

EPR properties:
g-Tensor (aka g-matrix)                 ...  NO
Zero-Field splitting spin-orbit         ...  NO
Zero-field splitting spin-spin          ...  NO
Hyperfine couplings                     ...  NO (   0 nuclei)
Quadrupole couplings                    ...  NO (   0 nuclei)
Contact density                         ...  NO (   0 nuclei)

NMR properties:
Chemical shifts                         ...  NO (   0 nuclei)
Spin-rotation constants                 ...  NO (   0 nuclei)
Spin-spin couplings                     ...  NO (   0 nuclei,    0 pairs)

Choice of magnetic origin               ... GIAO
Position of magnetic origin             ...     0.000000     0.000000     0.000000

Properties with geometric perturbations:
SCF Hessian                             ...  NO
IR spectrum                             ...  NO
VCD spectrum                            ...  NO
X-ray spectroscopy properties:
SCF XES/XAS/RIXS spectra                ...  NO


-------------
DIPOLE MOMENT
-------------

Method             : SCF
Type of density    : Electron Density
Multiplicity       :   1
Irrep              :   0
Energy             :  -323.5958952702069951 Eh
Relativity type    : 
Basis              : AO
                                X                 Y                 Z
Electronic contribution:      9.867810594      -0.463872602      -0.033282950
Nuclear contribution   :    -11.735110043       0.973021433      -0.197436288
                        -----------------------------------------
Total Dipole Moment    :     -1.867299450       0.509148831      -0.230719238
                        -----------------------------------------
Magnitude (a.u.)       :      1.949171909
Magnitude (Debye)      :      4.954401261



--------------------
Rotational spectrum 
--------------------
 
Rotational constants in cm-1:             0.325543             0.066346             0.056857 
Rotational constants in MHz :          9759.540804          1988.988699          1704.522911 

Dipole components along the rotational axes: 
x,y,z [a.u.] :    -1.844619     0.629778     0.005719 
x,y,z [Debye]:    -4.688648     1.600770     0.014536 

 

Dipole moment calculation done in   0.0 sec 

Maximum memory used throughout the entire PROP-calculation: 9.4 MB

--------------------------------
SUGGESTED CITATIONS FOR THIS RUN
--------------------------------

Below you find a list of papers that are relevant to this ORCA run
We neither can nor want to force you to cite these papers, but we appreciate if you do
You receive ORCA, which is the product of decades of hard work by many enthusiastic individuals, for free
The only thing we kindly ask in return is that you cite our papers,
We deeply appreciate it, if you show your appreciation for ORCA by not just citing the generic ORCA reference.

Please note that relegating all ORCA citations to the supporting information does *not* help us.
SI sections are not indexed - citations you put there will not count into any citation statistics
But we need these citations in order to attract the funding resources that allow us to do what we are doing

Therefore, if you are a happy ORCA user, please consider citing a few of the papers listed below in the main body of your paper

In addition to the list printed below, the program has created the file sp_solv.bibtex that contains the list in bibtex format
You can import this file easily into all common literature databanks and citation aid programs


List of essential papers. We consider these as the minimum necessary citations

  1. Neese,F.
     Software update: the ORCA program system, version 5.0
     WIRES Comput. Molec. Sci., 2022 12(1)e1606
     doi.org/10.1002/wcms.1606
  2. Grimme,S.; Hansen,A.; Ehlert,S.; Mewes,J.
     r2SCAN-3c: A 'Swiss army knife' composite electronic-structure method
     J. Chem. Phys., 2021 154 064103
     doi.org/10.1063/5.0040021

List of papers to cite with high priority. The work reported in these papers was absolutely
necessary for this run to complete.
Our perspective: the developers of density functionals and basis sets usually get cited in chemistry papers
Good! But without the algorithms to do something with them, the functionals or basis sets would not do anything.
Hence, in our opinion, the algorithm design and method developments papers are equally worthy of getting cited

  1. Neese,F.
     An improvement of the resolution of the identity approximation for the formation of the Coulomb matrix
     J. Comp. Chem., 2003 24(14)1740-1747
     doi.org/10.1002/jcc.10318
  2. Garcia-Rates,M.; Neese,F.
     Effect of the Solute Cavity on the Solvation Energy and its Derivatives within the Framework of the Gaussian Charge Scheme
     J. Comput. Chem., 2020 41 922-939
     doi.org/10.1002/jcc.26139
  3. Neese,F.
     The SHARK Integral Generation and Digestion System
     J. Comp. Chem., 2022  1-16
     doi.org/10.1002/jcc.26942
  4. Lehtola,S.; Steigemann,C.; Oliveira,M.; Marques,M.
     Recent developments in Libxc - A comprehensive library of functionals for density functional theory
     Software X, 2018 7 
     doi.org/10.1016/j.softx.2017.11.002
  5. Caldeweyher,E.; Bannwarth,C.; Grimme,S.
     Extension of the D3 dispersion coefficient model
     J. Chem. Phys., 2017 147 034112-XXXX
     doi.org/10.1063/1.4993215
  6. Caldeweyher,E.; Ehlert,S.; Hansen,A.; Neugebauer,H.; Spicher,S.; Bannwarth,C.; Grimme,S.
     A generally applicable atomic-charge dependent London dispersion correction
     J. Chem. Phys., 2019 150 154122-XXXX
     doi.org/10.1063/1.5090222
  7. Caldeweyher,E.; Mewes,J.; Ehlert,S.; Grimme,S.
     Extension and evaluation of the D4 London-dispersion model for periodic systems
     Phys. Chem. Chem. Phys., 2020 22(16)8499-8512
     doi.org/10.1039/D0CP00502A

List of suggested additional citations. These are papers that are important in the 'surrounding' of 
of this run, or papers that preceded the highly important papers. If you like your results we are grateful for a citation.

  1. Neese,F.
     The ORCA program system
     WIRES Comput. Molec. Sci., 2012 2(1)73-78
     doi.org/10.1002/wcms.81
  2. Neese,F.
     Software update: the ORCA program system, version 4.0
     WIRES Comput. Molec. Sci., 2018 8(1)1-6
     doi.org/10.1002/wcms.1327
  3. Neese,F.; Wennmohs,F.; Becker,U.; Riplinger,C.
     The ORCA quantum chemistry program package
     J. Chem. Phys., 2020 152 Art. No. L224108
     doi.org/10.1063/5.0004608

List of optional additional citations

  1. Neese,F.
     Approximate second-order SCF convergence for spin unrestricted wavefunctions
     Chem. Phys. Lett., 2000 325(1-3)93-98
     doi.org/10.1016/s0009-2614(00)00662-x

Timings for individual modules:

Sum of individual times          ...       26.432 sec (=   0.441 min)
Startup calculation              ...        1.302 sec (=   0.022 min)   4.9 %
SCF iterations                   ...       24.999 sec (=   0.417 min)  94.6 %
Property calculations            ...        0.131 sec (=   0.002 min)   0.5 %
                             ****ORCA TERMINATED NORMALLY****
TOTAL RUN TIME: 0 days 0 hours 0 minutes 27 seconds 599 msec
