
                                 *****************
                                 * O   R   C   A *
                                 *****************

                                            #,                                       
                                            ###                                      
                                            ####                                     
                                            #####                                    
                                            ######                                   
                                           ########,                                 
                                     ,,################,,,,,                         
                               ,,#################################,,                 
                          ,,##########################################,,             
                       ,#########################################, ''#####,          
                    ,#############################################,,   '####,        
                  ,##################################################,,,,####,       
                ,###########''''           ''''###############################       
              ,#####''   ,,,,##########,,,,          '''####'''          '####       
            ,##' ,,,,###########################,,,                        '##       
           ' ,,###''''                  '''############,,,                           
         ,,##''                                '''############,,,,        ,,,,,,###''
      ,#''                                            '''#######################'''  
     '                                                          ''''####''''         
             ,#######,   #######,   ,#######,      ##                                
            ,#'     '#,  ##    ##  ,#'     '#,    #''#        ,####,   ,####,        
            ##       ##  ##   ,#'  ##            #'  '#       #'       #'  '#        
            ##       ##  #######   ##           ,######,      #####,   #    #        
            '#,     ,#'  ##    ##  '#,     ,#' ,#      #,     #,   #   #,  ,#        
             '#######'   ##     ##  '#######'  #'      '#     '####' # '####'        



                #########################################################
                #                        -***-                          #
                #          Department of theory and spectroscopy        #
                #                                                       #
                #                      Frank Neese                      #
                #                                                       #
                #     Directorship, Architecture, Infrastructure        #
                #                    SHARK, DRIVERS                     #
                #        Core code/Algorithms in most modules           #
                #                                                       #
                #        Max Planck Institute fuer Kohlenforschung      #
                #                Kaiser Wilhelm Platz 1                 #
                #                 D-45470 Muelheim/Ruhr                 #
                #                      Germany                          #
                #                                                       #
                #                  All rights reserved                  #
                #                        -***-                          #
                #########################################################


                         Program Version 6.0.0  -   RELEASE  -


 With contributions from (in alphabetic order):
   Daniel Aravena         : Magnetic Suceptibility
   Michael Atanasov       : Ab Initio Ligand Field Theory (pilot matlab implementation)
   Alexander A. Auer      : GIAO ZORA, VPT2 properties, NMR spectrum
   Ute Becker             : All parallelization in ORCA, NUMFREQ, NUMCALC
   Giovanni Bistoni       : ED, misc. LED, open-shell LED, HFLD
   Martin Brehm           : Molecular dynamics
   Dmytro Bykov           : pre 5.0 version of the SCF Hessian
   Marcos Casanova-Páez   : Triplet and SCS-CIS(D). UHF-(DLPNO)-IP/EA/STEOM-CCSD. UHF-CVS-IP/STEOM-CCSD
   Vijay G. Chilkuri      : MRCI spin determinant printing, contributions to CSF-ICE
   Pauline Colinet        : FMM embedding
   Dipayan Datta          : RHF DLPNO-CCSD density
   Achintya Kumar Dutta   : EOM-CC, STEOM-CC
   Nicolas Foglia         : Exact transition moments, OPA infrastructure, MCD improvements
   Dmitry Ganyushin       : Spin-Orbit,Spin-Spin,Magnetic field MRCI
   Miquel Garcia          : C-PCM and meta-GGA Hessian, CCSD/C-PCM, Gaussian charge scheme
   Tiago L. C. Gouveia    : GS-ROHF, GS-ROCIS
   Yang Guo               : DLPNO-NEVPT2, F12-NEVPT2, CIM, IAO-localization
   Andreas Hansen         : Spin unrestricted coupled pair/coupled cluster methods
   Ingolf Harden          : AUTO-CI MPn and infrastructure 
   Benjamin Helmich-Paris : MC-RPA, TRAH-(SCF,CASSCF), AVAS, COSX integrals, SCF dyn. polar.
   Lee Huntington         : MR-EOM, pCC
   Robert Izsak           : Overlap fitted RIJCOSX, COSX-SCS-MP3, EOM
   Riya Kayal             : Wick's Theorem for AUTO-CI, AUTO-CI UHF-CCSDT
   Emily Kempfer          : AUTO-CI, RHF CISDT and CCSDT
   Christian Kollmar      : KDIIS, OOCD, Brueckner-CCSD(T), CCSD density, CASPT2, CASPT2-K, improved NEVPT2
   Axel Koslowski         : Symmetry handling
   Simone Kossmann        : Meta GGA functionals, TD-DFT gradient, OOMP2, (MP2 Hessian; deprecated post 5.0)
   Lucas Lang             : DCDCAS
   Marvin Lechner         : AUTO-CI (C++ implementation), FIC-MRCC
   Spencer Leger          : CASSCF response
   Dagmar Lenk            : GEPOL surface, SMD, ORCA-2-JSON
   Dimitrios Liakos       : Extrapolation schemes; Compound Job, initial MDCI parallelization
   Dimitrios Manganas     : Further ROCIS development; embedding schemes. LFT, Crystal Embedding
   Dimitrios Pantazis     : SARC Basis sets
   Anastasios Papadopoulos: AUTO-CI, single reference methods and gradients
   Taras Petrenko         : pre 6.0 DFT Hessian and TD-DFT gradient, (ASA, deprecated), ECA, 1-Electron XAS/XES, NRVS
   Peter Pinski           : DLPNO-MP2, DLPNO-MP2 Gradient
   Christoph Reimann      : Effective Core Potentials
   Marius Retegan         : Local ZFS, SOC
   Christoph Riplinger    : Optimizer, TS searches, QM/MM, DLPNO-CCSD(T), (RO)-DLPNO pert. Triples
   Michael Roemelt        : Original ROCIS implementation
   Masaaki Saitow         : Open-shell DLPNO-CCSD energy and density
   Barbara Sandhoefer     : DKH picture change effects
   Kantharuban Sivalingam : CASSCF convergence/infrastructure, NEVPT2 and variants, FIC-MRCI
   Bernardo de Souza      : ESD, SOC TD-DFT
   Georgi Stoychev        : AutoAux, RI-MP2 NMR, DLPNO-MP2 response, X2C
   Van Anh Tran           : RI-MP2 g-tensors
   Willem Van den Heuvel  : Paramagnetic NMR
   Zikuan Wang            : NOTCH, Electric field optimization 
   Frank Wennmohs         : Technical directorship and infrastructure
   Hang Xu                : AUTO-CI-Response properties 


 We gratefully acknowledge several colleagues who have allowed us to
 interface, adapt or use parts of their codes:
   Stefan Grimme, W. Hujo, H. Kruse, P. Pracht,  : VdW corrections, initial TS optimization,
                  C. Bannwarth, S. Ehlert,         DFT functionals, gCP, sTDA/sTD-DF
                  L. Wittmann, M. Mueller
   Ed Valeev, F. Pavosevic, A. Kumar             : LibInt (2-el integral package), F12 methods
   Garnet Chan, S. Sharma, J. Yang, R. Olivares  : DMRG
   Ulf Ekstrom                                   : XCFun DFT Library
   Mihaly Kallay                                 : mrcc  (arbitrary order and MRCC methods)
   Frank Weinhold                                : gennbo (NPA and NBO analysis)
   Simon Mueller                                 : openCOSMO-RS
   Christopher J. Cramer and Donald G. Truhlar   : smd solvation model
   Lars Goerigk                                  : TD-DFT with DH, B97 family of functionals
   V. Asgeirsson, H. Jonsson                     : NEB implementation
   FAccTs GmbH                                   : IRC, NEB, NEB-TS, DLPNO-Multilevel, CI-OPT
                                                   MM, QMMM, 2- and 3-layer-ONIOM, Crystal-QMMM,
                                                   LR-CPCM, SF, NACMEs, symmetry and pop. for TD-DFT,
                                                   nearIR, NL-DFT gradient (VV10), updates on ESD,
                                                   ML-optimized integration grids, MBIS, APM,
                                                   GOAT, DOCKER, SOLVATOR, interface openCOSMO-RS
   S Lehtola, MJT Oliveira, MAL Marques          : LibXC Library
   Liviu Ungur et al                             : ANISO software


 Your calculation uses the libint2 library for the computation of 2-el integrals
 For citations please refer to: http://libint.valeyev.net

 Your ORCA version has been built with support for libXC version: 6.2.2
 For citations please refer to: https://libxc.gitlab.io

 This ORCA versions uses:
   CBLAS   interface :  Fast vector & matrix operations
   LAPACKE interface :  Fast linear algebra routines
   SCALAPACK package :  Parallel linear algebra routines
   Shared memory     :  Shared parallel matrices
   BLAS/LAPACK       :  OpenBLAS 0.3.27  USE64BITINT DYNAMIC_ARCH NO_AFFINITY SkylakeX SINGLE_THREADED
        Core in use  :  SkylakeX
   Copyright (c) 2011-2014, The OpenBLAS Project


Your calculation utilizes the geometrical counterpoise correction gCP
Please cite in your paper:
H.Kruse, S. Grimme J.Chem.Phys., 136, (2012), 154101 
   

Your calculation utilizes the atom-pairwise dispersion correction
based on EEQ partial charges (D4)


================================================================================

----- Orbital basis set information -----
Your calculation utilizes the basis: def2-SV(P)
   F. Weigend and R. Ahlrichs, Phys. Chem. Chem. Phys. 7, 3297 (2005).

----- AuxJ basis set information -----
Your calculation utilizes the auxiliary basis: def2/J
   F. Weigend, Phys. Chem. Chem. Phys. 8, 1057 (2006).

================================================================================
                                        WARNINGS
                       Please study these warnings very carefully!
================================================================================


================================================================================
                                       INPUT FILE
================================================================================
NAME = sp.inp
|  1> ! pbe def2-sv(p) def2/J RI DEFGRID1 loosescf d4 GCP(DFT/SV(P)) printgap
|  2> %output
|  3>     printlevel normal
|  4> end
|  5> * xyz 0 1
|  6> C -3.5986943645 -0.7018065583 0.162305941
|  7> C -2.2556395396 -0.0608934401 0.486507844
|  8> C -1.1812847695 -0.4724714824 -0.5209952202
|  9> C 0.1105481065 0.2679964434 -0.2938680099
| 10> O 0.1971769202 1.4218565053 0.0704300272
| 11> O 1.1618772362 -0.4971762759 -0.5658803981
| 12> C 2.476436751 0.0650043825 -0.4115069326
| 13> C 2.9579166321 -0.0517146218 1.0266104933
| 14> H -3.9429938992 -0.3902159798 -0.8205663822
| 15> H -3.5149703941 -1.7855813438 0.1716233238
| 16> H -4.3427016941 -0.406972002 0.8970675029
| 17> H -1.9388917916 -0.3556976053 1.4888303619
| 18> H -2.34478315 1.026995524 0.4765725254
| 19> H -1.5182951542 -0.2237807305 -1.5306513691
| 20> H -0.9821333543 -1.543009531 -0.4820882862
| 21> H 3.1032733082 -0.514983594 -1.0892742334
| 22> H 2.446185452 1.1134956296 -0.7230567534
| 23> H 2.3221293241 0.5410101256 1.6806026029
| 24> H 2.9281736449 -1.0892631156 1.3481738307
| 25> H 3.9760514882 0.3169471573 1.096230198
| 26> *
| 27> 
| 28>                          ****END OF INPUT****
================================================================================

                       ****************************
                       * Single Point Calculation *
                       ****************************

---------------------------------
CARTESIAN COORDINATES (ANGSTROEM)
---------------------------------
  C     -3.598694   -0.701807    0.162306
  C     -2.255640   -0.060893    0.486508
  C     -1.181285   -0.472471   -0.520995
  C      0.110548    0.267996   -0.293868
  O      0.197177    1.421857    0.070430
  O      1.161877   -0.497176   -0.565880
  C      2.476437    0.065004   -0.411507
  C      2.957917   -0.051715    1.026610
  H     -3.942994   -0.390216   -0.820566
  H     -3.514970   -1.785581    0.171623
  H     -4.342702   -0.406972    0.897068
  H     -1.938892   -0.355698    1.488830
  H     -2.344783    1.026996    0.476573
  H     -1.518295   -0.223781   -1.530651
  H     -0.982133   -1.543010   -0.482088
  H      3.103273   -0.514984   -1.089274
  H      2.446185    1.113496   -0.723057
  H      2.322129    0.541010    1.680603
  H      2.928174   -1.089263    1.348174
  H      3.976051    0.316947    1.096230

----------------------------
CARTESIAN COORDINATES (A.U.)
----------------------------
  NO LB      ZA    FRAG     MASS         X           Y           Z
   0 C     6.0000    0    12.011   -6.800547   -1.326222    0.306714
   1 C     6.0000    0    12.011   -4.262541   -0.115072    0.919367
   2 C     6.0000    0    12.011   -2.232305   -0.892842   -0.984538
   3 C     6.0000    0    12.011    0.208906    0.506440   -0.555330
   4 O     8.0000    0    15.999    0.372610    2.686919    0.133093
   5 O     8.0000    0    15.999    2.195630   -0.939527   -1.069359
   6 C     6.0000    0    12.011    4.679787    0.122840   -0.777635
   7 C     6.0000    0    12.011    5.589652   -0.097726    1.940013
   8 H     1.0000    0     1.008   -7.451179   -0.737401   -1.550646
   9 H     1.0000    0     1.008   -6.642331   -3.374260    0.324321
  10 H     1.0000    0     1.008   -8.206517   -0.769066    1.695212
  11 H     1.0000    0     1.008   -3.663974   -0.672171    2.813482
  12 H     1.0000    0     1.008   -4.430998    1.940740    0.900592
  13 H     1.0000    0     1.008   -2.869162   -0.422884   -2.892512
  14 H     1.0000    0     1.008   -1.855963   -2.915865   -0.911015
  15 H     1.0000    0     1.008    5.864337   -0.973178   -2.058430
  16 H     1.0000    0     1.008    4.622621    2.104202   -1.366379
  17 H     1.0000    0     1.008    4.388188    1.022361    3.175879
  18 H     1.0000    0     1.008    5.533446   -2.058409    2.547679
  19 H     1.0000    0     1.008    7.513648    0.598943    2.071575

--------------------------------
INTERNAL COORDINATES (ANGSTROEM)
--------------------------------
 C      0   0   0     0.000000000000     0.00000000     0.00000000
 C      1   0   0     1.523047196142     0.00000000     0.00000000
 C      2   1   0     1.529279922484   111.46973498     0.00000000
 C      3   2   1     1.506224318723   111.76978694   174.01515675
 O      4   3   2     1.213099605822   125.03864803   324.18527506
 O      4   3   2     1.328447578435   111.39008780   145.26576465
 C      6   4   3     1.438035109961   118.44321415   179.44783388
 C      7   6   4     1.521061449300   111.15303596    85.05002759
 H      1   2   3     1.087045933674   110.55722622   299.15816846
 H      1   2   3     1.087043836525   110.47520579    59.32184375
 H      1   2   3     1.086438619956   110.22598421   179.24025098
 H      2   1   3     1.091736718065   109.73330546   238.94042577
 H      2   1   3     1.091580364445   110.20838878   120.71219171
 H      3   2   1     1.093082169138   109.31125774    55.78872167
 H      3   2   1     1.089599352602   111.67263391   296.05357085
 H      7   6   4     1.090265397213   104.52910031   205.34898352
 H      7   6   4     1.094217678150   108.58806713   323.19715232
 H      8   7   6     1.087774703978   109.97492108   295.69281932
 H      8   7   6     1.086643686879   110.14460703    55.90577612
 H      8   7   6     1.085060825879   109.36649292   176.08953984

---------------------------
INTERNAL COORDINATES (A.U.)
---------------------------
 C      0   0   0     0.000000000000     0.00000000     0.00000000
 C      1   0   0     2.878142089746     0.00000000     0.00000000
 C      2   1   0     2.889920235599   111.46973498     0.00000000
 C      3   2   1     2.846351458638   111.76978694   174.01515675
 O      4   3   2     2.292426028172   125.03864803   324.18527506
 O      4   3   2     2.510402106514   111.39008780   145.26576465
 C      6   4   3     2.717492528790   118.44321415   179.44783388
 C      7   6   4     2.874389572042   111.15303596    85.05002759
 H      1   2   3     2.054219109637   110.55722622   299.15816846
 H      1   2   3     2.054215146600   110.47520579    59.32184375
 H      1   2   3     2.053071453033   110.22598421   179.24025098
 H      2   1   3     2.063083407489   109.73330546   238.94042577
 H      2   1   3     2.062787941967   110.20838878   120.71219171
 H      3   2   1     2.065625941544   109.31125774    55.78872167
 H      3   2   1     2.059044372115   111.67263391   296.05357085
 H      7   6   4     2.060303014024   104.52910031   205.34898352
 H      7   6   4     2.067771742600   108.58806713   323.19715232
 H      8   7   6     2.055596285925   109.97492108   295.69281932
 H      8   7   6     2.053458973356   110.14460703    55.90577612
 H      8   7   6     2.050467799558   109.36649292   176.08953984

---------------------
BASIS SET INFORMATION
---------------------
There are 3 groups of distinct atoms

 Group   1 Type C   : 7s4p1d contracted to 3s2p1d pattern {511/31/1}
 Group   2 Type O   : 7s4p1d contracted to 3s2p1d pattern {511/31/1}
 Group   3 Type H   : 4s contracted to 2s pattern {31}

Atom   0C    basis set group =>   1
Atom   1C    basis set group =>   1
Atom   2C    basis set group =>   1
Atom   3C    basis set group =>   1
Atom   4O    basis set group =>   2
Atom   5O    basis set group =>   2
Atom   6C    basis set group =>   1
Atom   7C    basis set group =>   1
Atom   8H    basis set group =>   3
Atom   9H    basis set group =>   3
Atom  10H    basis set group =>   3
Atom  11H    basis set group =>   3
Atom  12H    basis set group =>   3
Atom  13H    basis set group =>   3
Atom  14H    basis set group =>   3
Atom  15H    basis set group =>   3
Atom  16H    basis set group =>   3
Atom  17H    basis set group =>   3
Atom  18H    basis set group =>   3
Atom  19H    basis set group =>   3
---------------------------------
AUXILIARY/J BASIS SET INFORMATION
---------------------------------
There are 3 groups of distinct atoms

 Group   1 Type C   : 12s5p4d2f1g contracted to 6s4p3d1f1g pattern {711111/2111/211/2/1}
 Group   2 Type O   : 12s5p4d2f1g contracted to 6s4p3d1f1g pattern {711111/2111/211/2/1}
 Group   3 Type H   : 5s2p1d contracted to 3s1p1d pattern {311/2/1}

Atom   0C    basis set group =>   1
Atom   1C    basis set group =>   1
Atom   2C    basis set group =>   1
Atom   3C    basis set group =>   1
Atom   4O    basis set group =>   2
Atom   5O    basis set group =>   2
Atom   6C    basis set group =>   1
Atom   7C    basis set group =>   1
Atom   8H    basis set group =>   3
Atom   9H    basis set group =>   3
Atom  10H    basis set group =>   3
Atom  11H    basis set group =>   3
Atom  12H    basis set group =>   3
Atom  13H    basis set group =>   3
Atom  14H    basis set group =>   3
Atom  15H    basis set group =>   3
Atom  16H    basis set group =>   3
Atom  17H    basis set group =>   3
Atom  18H    basis set group =>   3
Atom  19H    basis set group =>   3
------------------------------------------------------------------------------
                             ORCA STARTUP CALCULATIONS
                           -- RI-GTO INTEGRALS CHOSEN --
------------------------------------------------------------------------------
------------------------------------------------------------------------------
                   ___                                                        
                  /   \      - P O W E R E D   B Y -                         
                 /     \                                                     
                 |  |  |   _    _      __       _____    __    __             
                 |  |  |  | |  | |    /  \     |  _  \  |  |  /  |          
                  \  \/   | |  | |   /    \    | | | |  |  | /  /          
                 / \  \   | |__| |  /  /\  \   | |_| |  |  |/  /          
                |  |  |   |  __  | /  /__\  \  |    /   |      \           
                |  |  |   | |  | | |   __   |  |    \   |  |\   \          
                \     /   | |  | | |  |  |  |  | |\  \  |  | \   \       
                 \___/    |_|  |_| |__|  |__|  |_| \__\ |__|  \__/        
                                                                              
                      - O R C A' S   B I G   F R I E N D -                    
                                      &                                       
                       - I N T E G R A L  F E E D E R -                       
                                                                              
 v1 FN, 2020, v2 2021, v3 2022-2024                                           
------------------------------------------------------------------------------


----------------------
SHARK INTEGRAL PACKAGE
----------------------

Number of atoms                             ...     20
Number of basis functions                   ...    136
Number of shells                            ...     72
Maximum angular momentum                    ...      2
Integral batch strategy                     ... SHARK/LIBINT Hybrid
RI-J (if used) integral strategy            ... SPLIT-RIJ (Revised 2003 algorithm where possible)
Printlevel                                  ...      1
Contraction scheme used                     ... SEGMENTED contraction
Prescreening option                         ... SCHWARTZ
   Thresh                                   ... 1.000e-09
   Tcut                                     ... 1.000e-10
   Tpresel                                  ... 1.000e-10 
Coulomb Range Separation                    ... NOT USED
Exchange Range Separation                   ... NOT USED
Multipole approximations                    ... NOT USED
Finite Nucleus Model                        ... NOT USED
CABS basis                                  ... NOT available
Auxiliary Coulomb fitting basis             ... AVAILABLE
   # of basis functions in Aux-J            ...    524
   # of shells in Aux-J                     ...    180
   Maximum angular momentum in Aux-J        ...      4
Auxiliary J/K fitting basis                 ... NOT available
Auxiliary Correlation fitting basis         ... NOT available
Auxiliary 'external' fitting basis          ... NOT available

Checking pre-screening integrals            ... done (  0.0 sec) Dimension = 72
Check shell pair data                       ... done (  0.0 sec)
Shell pair information
Shell pair cut-off parameter TPreSel        ...   1.0e-10
Total number of shell pairs                 ...      2628
Shell pairs after pre-screening             ...      2382
Total number of primitive shell pairs       ...     10580
Primitive shell pairs kept                  ...      6607
          la=0 lb=0:   1048 shell pairs
          la=1 lb=0:    723 shell pairs
          la=1 lb=1:    132 shell pairs
          la=2 lb=0:    330 shell pairs
          la=2 lb=1:    119 shell pairs
          la=2 lb=2:     30 shell pairs

Calculating one electron integrals          ... done (  0.0 sec)
Calculating RI/J V-Matrix + Cholesky decomp.... done (  0.1 sec)
Calculating Nuclear repulsion               ... done (  0.0 sec) ENN=    388.178898632421 Eh

Diagonalization of the overlap matrix:
Smallest eigenvalue                        ... 1.397e-03
Time for diagonalization                   ...    0.004 sec
Threshold for overlap eigenvalues          ... 1.000e-07
Number of eigenvalues below threshold      ... 0
Time for construction of square roots      ...    0.013 sec
Total time needed                          ...    0.033 sec

-------------------
DFT GRID GENERATION
-------------------

General Integration Accuracy     IntAcc      ... 4.159
Radial Grid Type                 RadialGrid  ... OptM3 with GC (2021)
Angular Grid (max. ang.)         AngularGrid ... 3 (Lebedev-194)
Angular grid pruning method      GridPruning ... 4 (adaptive)
Weight generation scheme         WeightScheme... mBecke (2022)
Basis function cutoff            BFCut       ... 1.0000e-10
Integration weight cutoff        WCut        ... 1.0000e-14
Partially contracted basis set               ... off
Rotationally invariant grid construction     ... off
Angular grids for H and He will be reduced by one unit

Total number of grid points                  ...    43033
Total number of batches                      ...      682
Average number of points per batch           ...       63
Average number of grid points per atom       ...     2152
Initializing property integral containers    ... done (  0.0 sec)

SHARK setup successfully completed in   0.7 seconds

Maximum memory used throughout the entire STARTUP-calculation: 21.1 MB
-------------------------------------------------------------------------------
                                 ORCA GUESS
                   Start orbitals & Density for SCF / CASSCF
-------------------------------------------------------------------------------

------------
SCF SETTINGS
------------
Hamiltonian:
 Density Functional     Method          .... DFT(GTOs)
 Exchange Functional    Exchange        .... PBE
   PBE kappa parameter   XKappa         ....  0.804000
   PBE mue parameter    XMuePBE         ....  0.219520
 Correlation Functional Correlation     .... PBE
   PBE beta parameter  CBetaPBE         ....  0.066725
 LDA part of GGA corr.  LDAOpt          .... PW91-LDA
 Gradients option       PostSCFGGA      .... off
   NL short-range parameter             ....  6.400000
 RI-approximation to the Coulomb term is turned on
   Number of AuxJ basis functions       .... 524


General Settings:
 Integral files         IntName         .... sp
 Hartree-Fock type      HFTyp           .... RHF
 Total Charge           Charge          ....    0
 Multiplicity           Mult            ....    1
 Number of Electrons    NEL             ....   64
 Basis Dimension        Dim             ....  136
 Nuclear Repulsion      ENuc            ....    388.1788986324 Eh

Convergence Acceleration:
 AO-DIIS                CNVDIIS         .... on
   Start iteration      DIISMaxIt       ....    12
   Startup error        DIISStart       ....  0.200000
   # of expansion vecs  DIISMaxEq       ....     5
   Bias factor          DIISBfac        ....   1.050
   Max. coefficient     DIISMaxC        ....  10.000
 MO-DIIS                CNVKDIIS        .... off
 Trust-Rad. Augm. Hess. CNVTRAH         .... auto
   Auto Start mean grad. ratio tolernc. ....  1.125000
   Auto Start start iteration           ....    50
   Auto Start num. interpolation iter.  ....    10
   Max. Number of Micro iterations      ....    24
   Max. Number of Macro iterations      .... Maxiter - #DIIS iter
   Number of Davidson start vectors     ....     2
   Converg. threshold    (grad. norm)   ....   1.000e-04
   Grad. Scal. Fac. for Micro threshold ....   0.100
   Minimum threshold for Micro iter.    ....   1.000e-02
   NR start threshold (gradient norm)   ....   1.000e-04
   Initial trust radius                 ....   0.400
   Minimum AH scaling param. (alpha)    ....   1.000
   Maximum AH scaling param. (alpha)    .... 1000.000
   Quad. conv. algorithm                .... NR
   White noise on init. David. guess    .... on
   Maximum white noise                  ....   0.010
   Pseudo random numbers                .... off
   Inactive MOs                         .... canonical
   Orbital update algorithm             .... Taylor
   Preconditioner                       .... Diag
   Full preconditioner red. dimension   ....   250
 SOSCF                  CNVSOSCF        .... on
   Start iteration      SOSCFMaxIt      ....   150
   Startup grad/error   SOSCFStart      ....  0.003300
   Hessian update       SOSCFHessUp     .... L-BFGS
 Level Shifting         CNVShift        .... on
   Level shift para.    LevelShift      ....    0.2500
   Turn off err/grad.   ShiftErr        ....    0.0010
 Zerner damping         CNVZerner       .... off
 Static damping         CNVDamp         .... on
   Fraction old density DampFac         ....    0.7000
   Max. Damping (<1)    DampMax         ....    0.9800
   Min. Damping (>=0)   DampMin         ....    0.0000
   Turn off err/grad.   DampErr         ....    0.1000

SCF Procedure:
 Maximum # iterations   MaxIter         ....   125
 SCF integral mode      SCFMode         .... Direct
   Integral package                     .... SHARK and LIBINT hybrid scheme
 Reset frequency        DirectResetFreq ....    20
 Integral Threshold     Thresh          ....  1.000e-09 Eh
 Primitive CutOff       TCut            ....  1.000e-10 Eh

Convergence Tolerance:
 Convergence Check Mode ConvCheckMode   .... Total+1el-Energy
 Convergence forced     ConvForced      .... 0
 Energy Change          TolE            ....  1.000e-05 Eh
 1-El. energy change                    ....  1.000e-02 Eh
 Orbital Gradient       TolG            ....  1.000e-04
 Orbital Rotation angle TolX            ....  1.000e-04
 DIIS Error             TolErr          ....  5.000e-04

------------------------------
INITIAL GUESS: MODEL POTENTIAL
------------------------------
Loading Hartree-Fock densities                     ... done
Calculating cut-offs                               ... done
Initializing the effective Hamiltonian             ... done
Setting up the integral package (SHARK)            ... done
Starting the Coulomb interaction                   ... done (   0.2 sec)
Making the grid                                    ... done (   0.2 sec)
Mapping shells                                     ... done
Starting the XC term evaluation                    ... done (   0.2 sec)
  promolecular density results
     # of electrons  =     63.989154214
     EX              =    -50.541834107
     EC              =     -2.105796177
     EX+EC           =    -52.647630284
Transforming the Hamiltonian                       ... done (   0.0 sec)
Diagonalizing the Hamiltonian                      ... done (   0.0 sec)
Back transforming the eigenvectors                 ... done (   0.0 sec)
Now organizing SCF variables                       ... done
                      ------------------
                      INITIAL GUESS DONE (   0.6 sec)
                      ------------------
             **** ENERGY FILE WAS UPDATED (sp.en.tmp) ****
Finished Guess after   0.8 sec
Maximum memory used throughout the entire GUESS-calculation: 16.1 MB

-------------------------------------------------------------------------------------------
                                      ORCA LEAN-SCF
                              memory conserving SCF solver
-------------------------------------------------------------------------------------------

----------------------------------------D-I-I-S--------------------------------------------
Iteration    Energy (Eh)           Delta-E    RMSDP     MaxDP     DIISErr   Damp  Time(sec)
-------------------------------------------------------------------------------------------
               ***  Starting incremental Fock matrix formation  ***
    1    -385.2849952963122178     0.00e+00  4.97e-03  1.04e-01  2.46e-01  0.700   0.8
    2    -385.4107779887468723    -1.26e-01  3.10e-03  5.53e-02  7.59e-02  0.700   0.8
                               ***Turning on AO-DIIS***
    3    -385.4493631112856065    -3.86e-02  1.26e-03  1.45e-02  2.37e-02  0.700   0.8
    4    -385.4745618764161463    -2.52e-02  1.78e-03  2.35e-02  1.59e-02  0.000   0.8
    5    -385.5330379217139125    -5.85e-02  5.70e-04  7.18e-03  9.05e-03  0.000   0.8
                              *** Initializing SOSCF ***
---------------------------------------S-O-S-C-F--------------------------------------
Iteration    Energy (Eh)           Delta-E    RMSDP     MaxDP     MaxGrad    Time(sec)
--------------------------------------------------------------------------------------
    6    -385.5337950711447093    -7.57e-04  2.13e-04  2.68e-03  3.24e-03     0.8
               *** Restarting incremental Fock matrix formation ***
    7    -385.5338518584824214    -5.68e-05  1.63e-04  2.98e-03  6.41e-04     0.8
    8    -385.5338297910867595     2.21e-05  9.18e-05  2.42e-03  2.03e-03     0.8
    9    -385.5338589175225934    -2.91e-05  6.82e-05  1.21e-03  3.17e-04     0.7
   10    -385.5338551983303432     3.72e-06  3.96e-05  8.26e-04  4.07e-04     0.8
                 **** Energy Check signals convergence ****

               *****************************************************
               *                     SUCCESS                       *
               *           SCF CONVERGED AFTER  10 CYCLES          *
               *****************************************************

             **** ENERGY FILE WAS UPDATED (sp.en.tmp) ****

----------------
TOTAL SCF ENERGY
----------------

Total Energy       :       -385.53385519833034 Eh          -10490.90955 eV

Components:
Nuclear Repulsion  :        388.17889863242067 Eh           10562.88484 eV
Electronic Energy  :       -773.71275383075101 Eh          -21053.79439 eV
One Electron Energy:      -1292.80627749178961 Eh          -35179.04728 eV
Two Electron Energy:        519.09352366103860 Eh           14125.25289 eV

Virial components:
Potential Energy   :       -767.92950468295510 Eh          -20896.42418 eV
Kinetic Energy     :        382.39564948462476 Eh           10405.51463 eV
Virial Ratio       :          2.00820669826640

DFT components:
N(Alpha)           :       31.999857253029 electrons
N(Beta)            :       31.999857253029 electrons
N(Total)           :       63.999714506058 electrons
E(X)               :      -51.599031931171 Eh       
E(C)               :       -2.122908352999 Eh       
E(XC)              :      -53.721940284170 Eh       

---------------
SCF CONVERGENCE
---------------

  Last Energy change         ...   -3.7192e-06  Tolerance :   1.0000e-05
  Last MAX-Density change    ...    8.2572e-04  Tolerance :   1.0000e-03
  Last RMS-Density change    ...    3.9633e-05  Tolerance :   1.0000e-04
  Last DIIS Error            ...    3.2405e-03  Tolerance :   5.0000e-04
  Last Orbital Gradient      ...    4.0704e-04  Tolerance :   1.0000e-04
  Last Orbital Rotation      ...    3.7228e-04  Tolerance :   1.0000e-04


----------------
ORBITAL ENERGIES
----------------

  NO   OCC          E(Eh)            E(eV) 
   0   2.0000     -18.796444      -511.4773 
   1   2.0000     -18.731727      -509.7162 
   2   2.0000     -10.004696      -272.2416 
   3   2.0000      -9.945697      -270.6362 
   4   2.0000      -9.896660      -269.3018 
   5   2.0000      -9.888083      -269.0684 
   6   2.0000      -9.886068      -269.0136 
   7   2.0000      -9.877197      -268.7722 
   8   2.0000      -1.003106       -27.2959 
   9   2.0000      -0.908497       -24.7215 
  10   2.0000      -0.725419       -19.7397 
  11   2.0000      -0.696827       -18.9616 
  12   2.0000      -0.638755       -17.3814 
  13   2.0000      -0.588313       -16.0088 
  14   2.0000      -0.530402       -14.4330 
  15   2.0000      -0.491871       -13.3845 
  16   2.0000      -0.452295       -12.3076 
  17   2.0000      -0.433813       -11.8047 
  18   2.0000      -0.423292       -11.5184 
  19   2.0000      -0.399667       -10.8755 
  20   2.0000      -0.391072       -10.6416 
  21   2.0000      -0.375224       -10.2104 
  22   2.0000      -0.355699        -9.6790 
  23   2.0000      -0.352037        -9.5794 
  24   2.0000      -0.336428        -9.1547 
  25   2.0000      -0.326848        -8.8940 
  26   2.0000      -0.310223        -8.4416 
  27   2.0000      -0.299010        -8.1365 
  28   2.0000      -0.292636        -7.9630 
  29   2.0000      -0.287035        -7.8106 
  30   2.0000      -0.255387        -6.9494 
  31   2.0000      -0.217960        -5.9310 
  32   0.0000      -0.018792        -0.5113 
  33   0.0000       0.039059         1.0628 
  34   0.0000       0.053995         1.4693 
  35   0.0000       0.076484         2.0812 
  36   0.0000       0.082866         2.2549 
  37   0.0000       0.086298         2.3483 
  38   0.0000       0.089733         2.4418 
  39   0.0000       0.100550         2.7361 
  40   0.0000       0.103846         2.8258 
  41   0.0000       0.120258         3.2724 
  42   0.0000       0.130922         3.5626 
*Only the first 10 virtual orbitals were printed.

                    ********************************
                    * MULLIKEN POPULATION ANALYSIS *
                    ********************************

-----------------------
MULLIKEN ATOMIC CHARGES
-----------------------
   0 C :   -0.253095
   1 C :   -0.214320
   2 C :   -0.158765
   3 C :    0.123227
   4 O :   -0.211326
   5 O :   -0.235974
   6 C :   -0.010863
   7 C :   -0.304733
   8 H :    0.097488
   9 H :    0.096635
  10 H :    0.105762
  11 H :    0.092263
  12 H :    0.108675
  13 H :    0.111138
  14 H :    0.096967
  15 H :    0.100755
  16 H :    0.105653
  17 H :    0.127206
  18 H :    0.111946
  19 H :    0.111362
Sum of atomic charges:   -0.0000000

--------------------------------
MULLIKEN REDUCED ORBITAL CHARGES
--------------------------------
  0 C s       :     3.074784  s :     3.074784
      pz      :     1.059089  p :     3.148872
      px      :     1.032047
      py      :     1.057736
      dz2     :     0.006297  d :     0.029439
      dxz     :     0.008554
      dyz     :     0.001962
      dx2y2   :     0.008837
      dxy     :     0.003789

  1 C s       :     3.094630  s :     3.094630
      pz      :     1.030626  p :     3.082947
      px      :     0.983589
      py      :     1.068731
      dz2     :     0.009725  d :     0.036744
      dxz     :     0.008241
      dyz     :     0.002785
      dx2y2   :     0.010536
      dxy     :     0.005456

  2 C s       :     3.008570  s :     3.008570
      pz      :     1.070605  p :     3.116778
      px      :     1.001930
      py      :     1.044242
      dz2     :     0.010307  d :     0.033418
      dxz     :     0.005285
      dyz     :     0.002920
      dx2y2   :     0.008254
      dxy     :     0.006653

  3 C s       :     3.047210  s :     3.047210
      pz      :     0.846551  p :     2.698731
      px      :     0.929464
      py      :     0.922715
      dz2     :     0.011544  d :     0.130833
      dxz     :     0.015445
      dyz     :     0.022757
      dx2y2   :     0.029342
      dxy     :     0.051745

  4 O s       :     3.751121  s :     3.751121
      pz      :     1.386591  p :     4.442681
      px      :     1.734608
      py      :     1.321481
      dz2     :     0.002402  d :     0.017524
      dxz     :     0.000415
      dyz     :     0.005598
      dx2y2   :     0.005449
      dxy     :     0.003659

  5 O s       :     3.730412  s :     3.730412
      pz      :     1.695715  p :     4.489482
      px      :     1.183189
      py      :     1.610578
      dz2     :     0.002134  d :     0.016080
      dxz     :     0.002705
      dyz     :     0.002120
      dx2y2   :     0.003011
      dxy     :     0.006110

  6 C s       :     3.073042  s :     3.073042
      pz      :     1.067859  p :     2.878933
      px      :     0.780684
      py      :     1.030389
      dz2     :     0.009830  d :     0.058888
      dxz     :     0.013876
      dyz     :     0.008429
      dx2y2   :     0.014551
      dxy     :     0.012202

  7 C s       :     3.101245  s :     3.101245
      pz      :     1.031054  p :     3.175578
      px      :     1.060903
      py      :     1.083621
      dz2     :     0.006535  d :     0.027910
      dxz     :     0.004665
      dyz     :     0.006549
      dx2y2   :     0.006494
      dxy     :     0.003667

  8 H s       :     0.902512  s :     0.902512

  9 H s       :     0.903365  s :     0.903365

 10 H s       :     0.894238  s :     0.894238

 11 H s       :     0.907737  s :     0.907737

 12 H s       :     0.891325  s :     0.891325

 13 H s       :     0.888862  s :     0.888862

 14 H s       :     0.903033  s :     0.903033

 15 H s       :     0.899245  s :     0.899245

 16 H s       :     0.894347  s :     0.894347

 17 H s       :     0.872794  s :     0.872794

 18 H s       :     0.888054  s :     0.888054

 19 H s       :     0.888638  s :     0.888638


------------------------
MULLIKEN OVERLAP CHARGES
------------------------
B(  0-C ,  1-C ) :   0.9055 B(  0-C ,  2-C ) :  -0.1259 B(  0-C ,  8-H ) :   0.7573 
B(  0-C ,  9-H ) :   0.7498 B(  0-C , 10-H ) :   0.7387 B(  0-C , 11-H ) :  -0.0517 
B(  1-C ,  2-C ) :   0.7404 B(  1-C , 11-H ) :   0.7334 B(  1-C , 12-H ) :   0.6985 
B(  2-C ,  3-C ) :   0.4693 B(  2-C ,  4-O ) :  -0.2255 B(  2-C ,  5-O ) :  -0.2647 
B(  2-C , 11-H ) :  -0.0686 B(  2-C , 13-H ) :   0.6074 B(  2-C , 14-H ) :   0.6080 
B(  3-C ,  4-O ) :   1.3530 B(  3-C ,  5-O ) :   0.7703 B(  3-C ,  6-C ) :  -0.0602 
B(  4-O ,  5-O ) :  -0.1687 B(  5-O ,  6-C ) :   0.5230 B(  5-O ,  7-C ) :  -0.0774 
B(  5-O , 15-H ) :  -0.0544 B(  5-O , 16-H ) :  -0.0650 B(  6-C ,  7-C ) :   0.9418 
B(  6-C , 15-H ) :   0.7366 B(  6-C , 16-H ) :   0.7086 B(  7-C , 15-H ) :  -0.0564 
B(  7-C , 16-H ) :  -0.0611 B(  7-C , 17-H ) :   0.7443 B(  7-C , 18-H ) :   0.7378 
B(  7-C , 19-H ) :   0.7115 B(  8-H ,  9-H ) :  -0.0541 B( 11-H , 12-H ) :  -0.0606 
B( 15-H , 16-H ) :  -0.0634 B( 17-H , 18-H ) :  -0.0526 


                     *******************************
                     * LOEWDIN POPULATION ANALYSIS *
                     *******************************

----------------------
LOEWDIN ATOMIC CHARGES
----------------------
   0 C :   -0.339627
   1 C :   -0.229735
   2 C :   -0.248869
   3 C :    0.039120
   4 O :   -0.171262
   5 O :   -0.068649
   6 C :   -0.113068
   7 C :   -0.356531
   8 H :    0.117369
   9 H :    0.116553
  10 H :    0.121230
  11 H :    0.118389
  12 H :    0.124407
  13 H :    0.142277
  14 H :    0.129265
  15 H :    0.116523
  16 H :    0.118622
  17 H :    0.130454
  18 H :    0.123757
  19 H :    0.129777

-------------------------------
LOEWDIN REDUCED ORBITAL CHARGES
-------------------------------
  0 C s       :     2.944511  s :     2.944511
      pz      :     1.122703  p :     3.323952
      px      :     1.084001
      py      :     1.117248
      dz2     :     0.015635  d :     0.071164
      dxz     :     0.019768
      dyz     :     0.004855
      dx2y2   :     0.021314
      dxy     :     0.009591

  1 C s       :     2.906540  s :     2.906540
      pz      :     1.081183  p :     3.234732
      px      :     1.042571
      py      :     1.110977
      dz2     :     0.022774  d :     0.088464
      dxz     :     0.021006
      dyz     :     0.006321
      dx2y2   :     0.025116
      dxy     :     0.013247

  2 C s       :     2.916932  s :     2.916932
      pz      :     1.097069  p :     3.247521
      px      :     1.055291
      py      :     1.095161
      dz2     :     0.024049  d :     0.084415
      dxz     :     0.015537
      dyz     :     0.006074
      dx2y2   :     0.021185
      dxy     :     0.017570

  3 C s       :     2.846812  s :     2.846812
      pz      :     0.847374  p :     2.816544
      px      :     0.963810
      py      :     1.005360
      dz2     :     0.024850  d :     0.297524
      dxz     :     0.030902
      dyz     :     0.048542
      dx2y2   :     0.068657
      dxy     :     0.124573

  4 O s       :     3.550592  s :     3.550592
      pz      :     1.401856  p :     4.589734
      px      :     1.735736
      py      :     1.452141
      dz2     :     0.004046  d :     0.030937
      dxz     :     0.000633
      dyz     :     0.008962
      dx2y2   :     0.011411
      dxy     :     0.005885

  5 O s       :     3.451689  s :     3.451689
      pz      :     1.677119  p :     4.584268
      px      :     1.257071
      py      :     1.650077
      dz2     :     0.004186  d :     0.032693
      dxz     :     0.005344
      dyz     :     0.002657
      dx2y2   :     0.007095
      dxy     :     0.013411

  6 C s       :     2.924695  s :     2.924695
      pz      :     1.103740  p :     3.057103
      px      :     0.855449
      py      :     1.097914
      dz2     :     0.024715  d :     0.131269
      dxz     :     0.031376
      dyz     :     0.017167
      dx2y2   :     0.031603
      dxy     :     0.026408

  7 C s       :     2.951969  s :     2.951969
      pz      :     1.083670  p :     3.335866
      px      :     1.120130
      py      :     1.132066
      dz2     :     0.017709  d :     0.068696
      dxz     :     0.011975
      dyz     :     0.014385
      dx2y2   :     0.015914
      dxy     :     0.008714

  8 H s       :     0.882631  s :     0.882631

  9 H s       :     0.883447  s :     0.883447

 10 H s       :     0.878770  s :     0.878770

 11 H s       :     0.881611  s :     0.881611

 12 H s       :     0.875593  s :     0.875593

 13 H s       :     0.857723  s :     0.857723

 14 H s       :     0.870735  s :     0.870735

 15 H s       :     0.883477  s :     0.883477

 16 H s       :     0.881378  s :     0.881378

 17 H s       :     0.869546  s :     0.869546

 18 H s       :     0.876243  s :     0.876243

 19 H s       :     0.870223  s :     0.870223


---------------------------------
LOEWDIN BOND ORDERS (THRESH 0.050000)
---------------------------------
B(  0-C ,  1-C ) :   1.1319 B(  0-C ,  2-C ) :   0.0574 B(  0-C ,  8-H ) :   0.9408 
B(  0-C ,  9-H ) :   0.9408 B(  0-C , 10-H ) :   0.9383 B(  1-C ,  2-C ) :   1.0800 
B(  1-C ,  3-C ) :   0.0621 B(  1-C , 11-H ) :   0.9089 B(  1-C , 12-H ) :   0.9026 
B(  2-C ,  3-C ) :   1.0596 B(  2-C ,  4-O ) :   0.0950 B(  2-C ,  5-O ) :   0.0750 
B(  2-C , 13-H ) :   0.8793 B(  2-C , 14-H ) :   0.8954 B(  3-C ,  4-O ) :   2.1957 
B(  3-C ,  5-O ) :   1.4029 B(  3-C ,  6-C ) :   0.0756 B(  4-O ,  5-O ) :   0.2072 
B(  5-O ,  6-C ) :   1.0747 B(  5-O ,  7-C ) :   0.0534 B(  6-C ,  7-C ) :   1.1496 
B(  6-C , 15-H ) :   0.9206 B(  6-C , 16-H ) :   0.9077 B(  7-C , 17-H ) :   0.9350 
B(  7-C , 18-H ) :   0.9386 B(  7-C , 19-H ) :   0.9303 

------------------------------------------
LOEWDIN REDUCED ORBITAL POPULATIONS PER MO
-------------------------------------------
THRESHOLD FOR PRINTING IS 0.1%%
                      0         1         2         3         4         5   
                 -18.79644 -18.73173 -10.00470  -9.94570  -9.89666  -9.88808
                   2.00000   2.00000   2.00000   2.00000   2.00000   2.00000
                  --------  --------  --------  --------  --------  --------
 1 C  s               0.0       0.0       0.0       0.0       0.0      99.6
 2 C  s               0.0       0.0       0.0       0.0      99.6       0.0
 3 C  s               0.0       0.0      99.3       0.0       0.0       0.0
 4 O  s               0.0      99.9       0.0       0.0       0.0       0.0
 4 O  py              0.0       0.0       0.3       0.0       0.0       0.0
 5 O  s              99.9       0.0       0.0       0.0       0.0       0.0
 5 O  px              0.0       0.0       0.1       0.1       0.0       0.0
 6 C  s               0.0       0.0       0.0      99.7       0.0       0.0

                      6         7         8         9        10        11   
                  -9.88607  -9.87720  -1.00311  -0.90850  -0.72542  -0.69683
                   2.00000   2.00000   2.00000   2.00000   2.00000   2.00000
                  --------  --------  --------  --------  --------  --------
 0 C  s               0.0      99.7       0.0       0.0       7.0       6.5
 0 C  px              0.0       0.0       0.0       0.0       1.7       0.7
 0 C  py              0.0       0.0       0.0       0.0       0.2       0.1
 1 C  s               0.0       0.0       0.1       0.1      16.7       8.6
 1 C  pz              0.0       0.0       0.0       0.0       1.1       0.2
 1 C  px              0.0       0.1       0.1       0.1       0.2       0.2
 1 C  py              0.0       0.0       0.0       0.0       0.5       0.2
 2 C  s               0.0       0.0       1.0       0.3      20.3       1.4
 2 C  pz              0.0       0.0       0.0       0.1       0.6       0.4
 2 C  px              0.0       0.0       1.5       0.1       0.1       2.6
 2 C  py              0.0       0.0       0.3       0.5       0.2       0.0
 3 C  s               0.0       0.0      18.6       5.1       3.3       1.2
 3 C  pz              0.0       0.0       0.0       2.1       0.4       0.2
 3 C  px              0.0       0.0       5.1       1.9       3.9       1.2
 3 C  py              0.0       0.0       0.0      20.2       5.1       1.1
 3 C  dz2             0.0       0.0       0.4       0.0       0.0       0.0
 3 C  dyz             0.0       0.0       0.2       0.2       0.0       0.0
 3 C  dx2y2           0.0       0.0       0.0       1.3       0.1       0.0
 3 C  dxy             0.0       0.0       0.3       0.4       0.0       0.1
 4 O  s               0.0       0.0      11.3      41.6       1.6       0.1
 4 O  pz              0.0       0.0       0.3       0.4       0.0       0.0
 4 O  py              0.0       0.0       2.5       4.0       0.1       0.1
 4 O  dx2y2           0.0       0.0       0.1       0.1       0.0       0.0
 5 O  s               0.0       0.0      41.2      15.5       0.0       1.0
 5 O  pz              0.0       0.0       0.3       0.0       0.0       0.0
 5 O  px              0.0       0.0       0.2       0.5       5.8       9.2
 5 O  py              0.0       0.0       2.7       0.2       0.0       0.1
 5 O  dxy             0.0       0.0       0.0       0.0       0.0       0.1
 6 C  s               0.0       0.0       4.7       2.3       5.5      17.7
 6 C  pz              0.1       0.0       0.0       0.0       0.2       1.6
 6 C  px              0.0       0.0       5.1       1.2       0.1       0.9
 6 C  py              0.0       0.0       0.5       0.5       0.0       0.0
 6 C  dz2             0.0       0.0       0.1       0.0       0.0       0.1
 6 C  dx2y2           0.0       0.0       0.2       0.1       0.0       0.0
 6 C  dxy             0.0       0.0       0.1       0.1       0.0       0.0
 7 C  s              99.7       0.0       0.3       0.2       3.0      17.3
 7 C  pz              0.0       0.0       0.4       0.2       0.6       1.8
 7 C  px              0.0       0.0       0.2       0.1       0.1       0.1
 8 H  s               0.0       0.1       0.0       0.0       1.3       1.3
 9 H  s               0.0       0.1       0.0       0.0       1.3       1.3
10 H  s               0.0       0.1       0.0       0.0       1.2       1.2
11 H  s               0.0       0.0       0.0       0.0       3.0       1.6
12 H  s               0.0       0.0       0.0       0.1       2.8       1.6
13 H  s               0.0       0.0       0.1       0.0       3.9       0.3
14 H  s               0.0       0.0       0.2       0.0       4.0       0.2
15 H  s               0.0       0.0       0.5       0.3       1.1       3.9
16 H  s               0.0       0.0       0.8       0.1       1.0       3.2
17 H  s               0.1       0.0       0.1       0.0       0.5       3.2
18 H  s               0.1       0.0       0.1       0.0       0.5       3.4
19 H  s               0.1       0.0       0.0       0.0       0.5       3.5

                     12        13        14        15        16        17   
                  -0.63876  -0.58831  -0.53040  -0.49187  -0.45229  -0.43381
                   2.00000   2.00000   2.00000   2.00000   2.00000   2.00000
                  --------  --------  --------  --------  --------  --------
 0 C  s              17.9       6.8       7.9       0.1       0.3       0.0
 0 C  pz              0.1       0.0       1.1       0.5       1.0       1.0
 0 C  px              0.0       0.7       5.3       0.2       2.1       0.0
 0 C  py              0.0       0.1       2.0       0.3       0.2       4.7
 0 C  dxy             0.0       0.0       0.1       0.0       0.0       0.0
 1 C  s               2.5       0.7      14.7       1.2       0.0       0.2
 1 C  pz              0.4       0.2       3.4       1.9       3.1       3.2
 1 C  px              7.7       3.8       1.2       0.1       0.0       1.8
 1 C  py              0.1       0.1       2.1       0.4       2.7       9.4
 1 C  dxz             0.1       0.1       0.0       0.0       0.0       0.0
 2 C  s              10.9       4.0       2.5       1.4       1.6       0.1
 2 C  pz              0.3       0.0       5.9       1.1       2.2       9.3
 2 C  px              2.8       0.9       2.9       0.8      10.3       1.3
 2 C  py              0.0       0.0       0.6       0.5       6.3      11.6
 2 C  dxz             0.0       0.0       0.1       0.0       0.0       0.0
 2 C  dxy             0.0       0.0       0.1       0.0       0.2       0.0
 3 C  s               2.8       1.2       0.7       2.0       2.3       0.0
 3 C  pz              0.3       0.1       1.2       0.3       0.0      11.8
 3 C  px              4.5       3.4       1.8       1.6      10.0       0.1
 3 C  py              2.9       1.2       0.2       1.0       0.9       2.1
 3 C  dxy             0.1       0.2       0.1       0.0       0.0       0.0
 4 O  s               0.8       0.1       0.0       1.4       0.3       0.3
 4 O  pz              0.0       0.0       0.2       0.2       0.0       4.5
 4 O  px              0.2       0.3       0.1       0.6       6.0       0.2
 4 O  py              0.2       0.1       0.0       0.8       0.7       0.0
 5 O  s               1.2       0.1       0.7       3.7       0.6       0.1
 5 O  pz              0.1       0.7       0.5       0.0       0.6       9.0
 5 O  px              2.5      17.5       0.0      11.5       0.0       0.0
 5 O  py              0.1       0.2       0.0       7.1       9.2       1.5
 5 O  dxy             0.0       0.2       0.0       0.1       0.0       0.0
 6 C  s               0.5       5.1       2.8       6.2       0.1       0.3
 6 C  pz              2.2       7.1       1.4       1.7       1.2       1.4
 6 C  px              2.2       1.3       0.9       6.7       4.2       0.2
 6 C  py              0.1       0.5       0.2      13.1      10.3       0.2
 6 C  dz2             0.1       0.2       0.0       0.0       0.0       0.0
 6 C  dx2y2           0.0       0.0       0.0       0.2       0.0       0.0
 6 C  dxy             0.0       0.0       0.0       0.4       0.0       0.0
 7 C  s               9.7      13.7       1.0       1.2       0.0       0.3
 7 C  pz              0.0       2.3       1.5       4.8       0.6       2.0
 7 C  px              0.0       0.3       0.0       0.2       1.2       1.4
 7 C  py              0.0       0.0       0.0       2.5       2.8       0.0
 7 C  dz2             0.0       0.1       0.0       0.1       0.0       0.0
 8 H  s               4.1       1.9       4.5       0.3       0.0       0.7
 9 H  s               4.1       2.0       4.3       0.2       0.0       2.0
10 H  s               4.5       2.3       3.2       0.0       1.5       0.0
11 H  s               0.5       0.2       7.7       1.2       0.4       2.0
12 H  s               0.5       0.3       6.8       0.8       0.8       4.0
13 H  s               2.6       1.3       2.6       1.6       3.4       5.0
14 H  s               2.7       0.7       1.7       1.1       3.0       5.8
15 H  s               0.1       2.8       2.0       2.9       5.1       0.1
16 H  s               0.1       1.2       1.6      11.9       2.1       0.0
17 H  s               2.2       4.6       0.7       0.9       1.4       0.2
18 H  s               2.3       4.1       0.6       3.0       0.5       0.2
19 H  s               2.7       4.9       0.3       0.1       0.0       1.2

                     18        19        20        21        22        23   
                  -0.42329  -0.39967  -0.39107  -0.37522  -0.35570  -0.35204
                   2.00000   2.00000   2.00000   2.00000   2.00000   2.00000
                  --------  --------  --------  --------  --------  --------
 0 C  s               0.2       0.0       0.0       0.0       0.0       0.0
 0 C  pz              0.4       7.0       1.2      15.7       0.3       5.0
 0 C  px              2.2       0.1       3.8       0.2       5.1       0.6
 0 C  py              0.2       5.2       2.4       2.1      17.0       0.8
 0 C  dz2             0.0       0.0       0.0       0.0       0.1       0.0
 0 C  dx2y2           0.0       0.0       0.0       0.0       0.1       0.0
 1 C  s               0.3       0.0       0.1       0.0       0.1       0.0
 1 C  pz              0.5       8.0       1.3       6.1       0.1       0.2
 1 C  px              0.3       1.0       0.1       4.3       0.5       0.7
 1 C  py              2.2       3.9       4.2       0.1       1.4       0.3
 1 C  dxy             0.0       0.0       0.0       0.0       0.1       0.0
 2 C  s               0.0       0.0       0.0       0.1       0.4       0.0
 2 C  pz              0.5       0.6       0.2      10.4       0.2       4.0
 2 C  px              0.7       2.6       4.0       0.7       0.3       0.6
 2 C  py              7.5       0.0       0.0       1.4      10.1       0.7
 2 C  dx2y2           0.0       0.0       0.0       0.0       0.2       0.0
 2 C  dxy             0.1       0.1       0.0       0.0       0.1       0.0
 3 C  s               2.0       0.3       1.5       0.0       0.1       0.0
 3 C  pz              3.4       3.6       0.2       2.9       4.4       0.1
 3 C  px              2.4       2.3       2.6       0.7       0.7       0.0
 3 C  py              0.2       1.3       3.5       0.2       1.3       0.8
 3 C  dx2y2           0.4       0.0       0.0       0.0       0.0       0.0
 3 C  dxy             0.0       0.1       0.0       0.1       0.1       0.1
 4 O  s               7.3       1.4       7.5       0.0       1.3       0.3
 4 O  pz              0.0       3.6       3.6       2.1       0.8       0.2
 4 O  px              0.7       0.6       0.3       1.0       0.6       0.4
 4 O  py             11.8       1.3      20.8       0.0       8.9       1.6
 4 O  dx2y2           0.1       0.0       0.2       0.0       0.1       0.0
 5 O  s               1.3       0.0       0.7       1.2       0.1       1.0
 5 O  pz             10.4       9.9       0.1       0.9       0.0       2.1
 5 O  px              3.9       3.9       0.0       0.0       1.5       0.4
 5 O  py              3.3       2.2       4.8       1.4       0.4       2.3
 6 C  s               0.2       0.3       0.0       0.2       0.2       0.1
 6 C  pz              5.7       2.9       0.7       2.7       3.6       7.5
 6 C  px              6.3       5.3       1.1       0.0       0.3       0.3
 6 C  py              1.1       2.2       5.0       1.6       0.0       0.2
 6 C  dxz             0.0       0.1       0.0       0.0       0.0       0.1
 6 C  dxy             0.1       0.0       0.1       0.0       0.0       0.2
 7 C  s               0.1       0.3       0.0       0.0       0.0       0.0
 7 C  pz              0.1       8.4       0.2       1.9       2.0      10.5
 7 C  px              9.4       0.2       2.7       5.7       7.6       9.7
 7 C  py              0.4       1.8       9.3       8.8       0.5      13.7
 7 C  dz2             0.0       0.1       0.0       0.0       0.1       0.0
 7 C  dx2y2           0.0       0.0       0.0       0.1       0.0       0.4
 7 C  dxy             0.0       0.0       0.0       0.0       0.0       0.1
 8 H  s               0.8       3.1       0.0       4.5       0.9       3.3
 9 H  s               0.0       2.4       1.0       1.1       9.2       0.4
10 H  s               0.4       1.0       2.9       4.9       4.9       0.3
11 H  s               0.7       4.0       0.0       1.3       0.2       0.0
12 H  s               0.2       2.0       1.8       0.1       0.3       0.1
13 H  s               0.0       0.7       0.0       3.8       0.2       2.8
14 H  s               2.8       0.1       0.3       1.0       7.6       0.5
15 H  s               4.4       1.3       2.2       0.0       0.2       1.4
16 H  s               0.1       0.7       2.2       0.6       0.0       1.7
17 H  s               0.8       2.7       3.5       0.6       0.1       2.1
18 H  s               0.4       0.0       3.2       2.7       0.1      12.4
19 H  s               3.3       0.9       0.1       6.1       5.0       9.2

                     24        25        26        27        28        29   
                  -0.33643  -0.32685  -0.31022  -0.29901  -0.29264  -0.28703
                   2.00000   2.00000   2.00000   2.00000   2.00000   2.00000
                  --------  --------  --------  --------  --------  --------
 0 C  s               0.0       0.0       0.4       0.0       0.0       0.1
 0 C  pz              0.1       8.7       3.6       6.9       3.4       0.1
 0 C  px              9.6       0.0      15.0       2.7       0.5       3.4
 0 C  py              2.5       3.4       3.3       4.2       6.4       0.7
 0 C  dz2             0.0       0.1       0.1       0.0       0.2       0.1
 0 C  dxz             0.1       0.1       0.0       0.4       0.2       0.0
 0 C  dx2y2           0.0       0.0       0.1       0.4       0.2       0.1
 1 C  s               0.1       0.0       0.1       0.1       0.0       0.0
 1 C  pz              0.2       0.6       5.1      10.9       6.7       0.8
 1 C  px              8.7       0.0      13.0       3.7       0.1       4.0
 1 C  py              1.5       0.3       3.8       6.1      13.6       2.5
 1 C  dz2             0.0       0.0       0.2       0.0       0.4       0.3
 1 C  dxz             0.1       0.1       0.0       0.4       0.2       0.0
 1 C  dx2y2           0.0       0.0       0.2       0.4       0.4       0.0
 1 C  dxy             0.0       0.0       0.2       0.0       0.0       0.0
 2 C  s               0.5       0.1       0.0       0.8       0.0       0.0
 2 C  pz              0.5       3.5       0.5      11.4       2.2       0.5
 2 C  px              0.2       2.7       1.5       5.7       0.6       5.9
 2 C  py              1.5       3.7       0.4       2.1       3.8       0.7
 2 C  dz2             0.1       0.2       0.2       0.0       0.2       0.3
 2 C  dxz             0.0       0.1       0.0       0.2       0.0       0.0
 2 C  dx2y2           0.0       0.0       0.1       0.1       0.2       0.0
 2 C  dxy             0.0       0.0       0.1       0.0       0.2       0.0
 3 C  s               0.3       0.0       0.2       0.0       0.3       0.7
 3 C  pz              0.2       8.1       0.5       1.0       0.2       0.6
 3 C  px              0.2       0.7       3.5       0.2       0.3       0.2
 3 C  py              1.7       0.8       0.8       0.2       1.7       2.4
 3 C  dxz             0.0       0.1       0.0       0.1       0.1       0.0
 3 C  dyz             0.0       0.2       0.0       0.1       0.0       0.1
 3 C  dx2y2           0.5       0.1       0.0       0.1       0.3       0.4
 3 C  dxy             0.0       0.0       0.0       0.0       0.0       0.2
 4 O  s               1.1       0.0       0.1       0.1       0.4       0.5
 4 O  pz              1.1      15.2       0.9       2.2       3.0       0.0
 4 O  px              0.3       0.5       2.0       0.2       0.1       0.0
 4 O  py              6.7       0.8       0.3       1.9       1.8       4.6
 5 O  s               0.3       0.0       0.0       0.0       0.5       3.2
 5 O  pz              1.4       1.8       0.4       0.6       1.6       0.9
 5 O  px              0.6       0.4       0.4       0.4       0.4       1.9
 5 O  py              8.9       0.0       0.2       0.8       3.8      23.4
 5 O  dxz             0.0       0.1       0.0       0.0       0.0       0.0
 6 C  s               0.1       0.1       0.0       0.0       0.0       0.2
 6 C  pz              0.2       9.9       0.1       0.3       0.5       0.1
 6 C  px              1.9       0.6       2.1       0.7       0.2       0.6
 6 C  py              0.9       0.1       5.5       1.7       1.4       9.4
 6 C  dz2             0.1       0.0       0.1       0.0       0.0       0.0
 6 C  dxz             0.1       0.3       0.0       0.0       0.0       0.0
 6 C  dyz             0.1       0.0       0.2       0.0       0.0       0.2
 6 C  dx2y2           0.1       0.0       0.1       0.0       0.1       0.5
 7 C  s               0.0       0.2       0.0       0.0       0.0       0.0
 7 C  pz              1.3       8.8       0.1       0.3       0.4       0.1
 7 C  px             12.6       0.1       2.3       0.9       0.3       0.1
 7 C  py              8.3       0.1       4.5       0.9       0.3       2.5
 7 C  dxz             0.1       0.1       0.0       0.0       0.0       0.0
 7 C  dyz             0.2       0.0       0.2       0.0       0.0       0.2
 7 C  dx2y2           0.0       0.0       0.0       0.0       0.0       0.1
 7 C  dxy             0.1       0.0       0.0       0.0       0.0       0.0
 8 H  s               0.0       6.3       3.3       1.4       5.3       1.0
 9 H  s               1.0       1.9       1.0       3.8       5.5       1.5
10 H  s               2.2       1.5       0.2       9.7       0.6       1.2
11 H  s               0.2       0.6       5.0       2.7       9.4       3.2
12 H  s               0.3       0.1       1.6       5.0      11.4       2.9
13 H  s               0.1       5.3       1.3       2.1       3.0       2.5
14 H  s               0.4       2.8       0.2       1.5       4.9       1.2
15 H  s               2.3       4.9       3.2       0.7       0.7       2.4
16 H  s               0.3       0.1       4.4       1.6       0.8       7.3
17 H  s              11.3       3.1       3.2       0.7       0.2       0.8
18 H  s               3.0       0.1       3.2       0.8       0.3       2.6
19 H  s               3.2       0.0       0.3       0.2       0.4       0.7

                     30        31        32        33        34        35   
                  -0.25539  -0.21796  -0.01879   0.03906   0.05399   0.07648
                   2.00000   2.00000   0.00000   0.00000   0.00000   0.00000
                  --------  --------  --------  --------  --------  --------
 0 C  s               0.0       0.0       0.0       7.5       5.6       0.1
 0 C  pz              0.0       0.0       0.1       0.3       0.1       2.9
 0 C  px              0.0       0.2       0.3       1.4       0.5       0.0
 0 C  py              0.0       0.0       0.0       0.8       0.2       1.0
 0 C  dxz             0.0       0.0       0.0       0.1       0.0       0.1
 0 C  dxy             0.0       0.0       0.0       0.1       0.0       0.0
 1 C  s               0.0       0.1       1.0       5.3       0.8       1.9
 1 C  pz              0.0       0.1       0.2       1.5       0.2       2.0
 1 C  px              0.0       0.1       0.6       0.1       0.1       1.2
 1 C  py              0.0       0.2       0.3       0.3       0.3       1.3
 1 C  dz2             0.0       0.0       0.0       0.0       0.0       0.6
 1 C  dyz             0.0       0.0       0.0       0.1       0.0       0.0
 2 C  s               0.0       0.6       0.1       5.1       0.4       2.7
 2 C  pz              0.1       0.4       0.4       1.8       0.4       4.0
 2 C  px              0.0       3.9       0.1       0.0       0.0       1.0
 2 C  py              0.1       2.6       0.0       1.2       0.2       1.2
 2 C  dz2             0.0       0.0       0.3       0.1       0.0       0.4
 2 C  dxz             0.0       0.0       1.7       0.1       0.0       0.1
 2 C  dyz             0.0       0.0       0.0       0.2       0.1       0.0
 3 C  s               0.0       0.4       0.0       0.9       0.4       0.2
 3 C  pz              0.5       0.1      42.4       0.4       0.9       1.0
 3 C  px              0.0       0.9       0.0       0.4       0.0       0.4
 3 C  py              0.0       0.5       4.5       0.7       0.0       0.1
 3 C  dz2             0.5       0.0       0.1       0.3       0.0       0.1
 3 C  dxz             0.4       0.4       0.3       0.0       0.0       0.0
 3 C  dyz             1.4       0.0       0.7       0.2       0.0       0.0
 3 C  dx2y2           0.1       0.0       0.1       0.1       0.0       0.2
 3 C  dxy             0.0       4.2       0.0       0.0       0.0       0.0
 4 O  s               0.0       0.0       0.0       0.6       0.2       0.0
 4 O  pz             31.7       0.0      22.7       0.3       0.5       0.6
 4 O  px              0.2      72.2       0.0       0.0       0.6       0.2
 4 O  py              3.1       0.3       2.5       0.0       0.0       0.1
 4 O  dz2             0.0       0.0       0.1       0.0       0.0       0.0
 4 O  dyz             0.0       0.0       0.4       0.0       0.0       0.0
 5 O  s               0.0       0.3       0.0       0.4       0.0       1.6
 5 O  pz             40.9       1.5       9.3       0.0       0.6       0.1
 5 O  px              0.1       1.4       0.0       0.0       0.1       0.6
 5 O  py              4.3       5.5       0.7       0.1       0.3       0.6
 5 O  dxz             0.0       0.0       0.4       0.0       0.0       0.0
 6 C  s               0.0       0.1       0.0       1.8       7.0       0.6
 6 C  pz              3.9       0.2       0.1       0.5       2.1       0.4
 6 C  px              0.0       0.6       0.0       0.5       1.1       6.2
 6 C  py              0.1       0.2       0.0       0.2       0.0       0.7
 6 C  dz2             0.2       0.0       0.2       0.0       0.1       0.4
 6 C  dxz             0.7       0.0       0.3       0.0       0.0       0.0
 6 C  dx2y2           0.1       0.1       0.0       0.0       0.0       0.4
 6 C  dxy             0.0       0.0       0.0       0.0       0.0       0.3
 7 C  s               0.5       0.0       0.7       3.4      10.5       2.4
 7 C  pz              6.0       0.1       0.4       0.9       2.1       0.4
 7 C  px              0.7       0.1       0.0       0.2       1.7       0.7
 7 C  py              0.1       0.0       0.0       0.0       0.1       0.0
 7 C  dz2             0.0       0.0       0.0       0.1       0.4       0.2
 7 C  dxz             0.0       0.0       0.0       0.0       0.0       0.1
 7 C  dx2y2           0.0       0.0       0.0       0.0       0.0       0.1
 8 H  s               0.0       0.0       0.3       6.0       4.4       5.3
 9 H  s               0.0       0.1       0.0       7.9       4.2       2.7
10 H  s               0.0       0.1       0.0       4.5       3.7       1.8
11 H  s               0.0       0.1       0.5       7.9       0.6      14.8
12 H  s               0.0       0.3       0.0       4.0       1.2       0.8
13 H  s               0.0       0.2       5.9       7.6       1.0      19.9
14 H  s               0.0       0.8       0.6      10.0       0.7       0.4
15 H  s               1.3       0.1       0.2       2.8      14.2       4.1
16 H  s               1.6       0.3       0.2       2.0       4.8       1.8
17 H  s               0.2       0.1       0.2       2.6       3.7       4.9
18 H  s               0.1       0.0       0.1       2.9       9.5       3.2
19 H  s               0.7       0.1       0.3       3.5      14.0       0.6

                     36        37        38        39        40        41   
                   0.08287   0.08630   0.08973   0.10055   0.10385   0.12026
                   0.00000   0.00000   0.00000   0.00000   0.00000   0.00000
                  --------  --------  --------  --------  --------  --------
 0 C  s               2.9       0.9       6.0       2.2       2.3       0.7
 0 C  pz              0.6       2.6       1.0       0.5       0.1       3.0
 0 C  px              1.5       0.0       0.5       0.2       0.3       0.3
 0 C  py              3.6       0.2       0.0       2.6       0.6       0.1
 0 C  dxz             0.0       0.1       0.3       0.2       0.0       0.1
 0 C  dyz             0.0       0.0       0.0       0.0       0.0       0.2
 0 C  dx2y2           0.2       0.0       0.0       0.1       0.0       0.1
 0 C  dxy             0.0       0.0       0.0       0.0       0.1       0.0
 1 C  s               1.0       0.0       0.9       1.3       5.1       4.2
 1 C  pz              0.1       1.0       2.5       1.9       0.1       0.2
 1 C  px              0.2       0.2       0.5       0.5       0.0       0.2
 1 C  py              2.6       0.3       0.1       1.0       0.8       0.8
 1 C  dz2             0.0       0.4       0.0       0.0       0.1       0.0
 1 C  dxz             0.0       0.0       0.4       0.2       0.0       0.1
 1 C  dyz             0.3       0.0       0.0       0.0       0.0       0.2
 1 C  dx2y2           0.6       0.0       0.0       0.2       0.0       0.0
 1 C  dxy             0.1       0.0       0.1       0.1       0.0       0.0
 2 C  s               4.3       0.6       2.4       1.0       0.1       0.7
 2 C  pz              0.2       2.7       0.1       0.1       0.2       0.1
 2 C  px              0.6       0.8       0.6       0.5       0.1       0.1
 2 C  py              7.9       0.3       0.0       0.3       0.1       1.0
 2 C  dz2             0.0       0.2       0.0       0.0       0.0       0.0
 2 C  dyz             0.0       0.0       0.0       0.0       0.1       0.1
 2 C  dx2y2           0.5       0.1       0.0       0.2       0.2       0.3
 2 C  dxy             0.4       0.0       0.0       0.0       0.0       0.0
 3 C  s               0.8       0.1       3.0       0.2       0.2       1.2
 3 C  pz              0.1       0.1       0.1       0.3       0.0       0.1
 3 C  px              0.0       0.1       0.5       0.5       0.1       0.0
 3 C  py              0.5       0.4       0.2       0.3       1.2       0.6
 3 C  dz2             0.0       0.0       0.6       0.0       0.0       0.3
 3 C  dyz             0.0       0.1       0.1       0.0       0.1       0.0
 3 C  dx2y2           0.3       0.1       0.1       0.3       0.5       0.2
 4 O  s               0.1       0.1       0.7       0.0       0.3       0.1
 4 O  pz              0.0       0.1       0.0       0.0       0.1       0.0
 4 O  px              0.1       0.1       0.2       0.1       0.2       0.9
 4 O  py              0.1       0.0       0.0       0.0       0.1       0.0
 5 O  s               0.0       1.7       2.1       2.3       1.9       2.0
 5 O  pz              0.0       0.1       0.0       0.0       0.4       0.2
 5 O  px              0.0       2.0       0.3       0.9       2.2       0.1
 5 O  py              0.3       0.5       0.5       1.0       0.4       0.2
 5 O  dz2             0.0       0.0       0.0       0.1       0.1       0.1
 5 O  dx2y2           0.1       0.0       0.1       0.0       0.3       0.1
 5 O  dxy             0.1       0.1       0.0       0.1       0.1       0.0
 6 C  s               0.1       0.9       0.1       7.8       8.0       0.0
 6 C  pz              0.0       0.8       1.0       0.2       0.8       0.0
 6 C  px              0.0      14.6       1.6       5.2       2.1       3.4
 6 C  py              1.8       0.6       8.1       3.1       1.2       3.9
 6 C  dz2             0.0       1.1       0.1       0.2       0.2       0.0
 6 C  dxz             0.0       0.1       0.1       0.1       0.1       0.3
 6 C  dyz             0.1       0.0       0.6       0.3       0.1       0.1
 6 C  dx2y2           0.1       0.4       0.5       0.1       0.4       0.6
 6 C  dxy             0.0       0.6       0.2       0.2       0.1       0.1
 7 C  s               0.5       5.1       0.6       1.1       4.0       0.0
 7 C  pz              0.1       0.8       0.2       0.2       0.4       0.9
 7 C  px              0.1       1.7       0.3       0.0       4.9       7.1
 7 C  py              0.8       0.0       4.7       3.5       1.0       5.7
 7 C  dz2             0.0       0.5       0.0       0.0       0.0       0.0
 7 C  dxz             0.0       0.3       0.0       0.4       0.2       0.0
 7 C  dyz             0.1       0.0       0.6       0.2       0.0       0.1
 7 C  dx2y2           0.0       0.2       0.2       0.0       0.4       0.5
 7 C  dxy             0.0       0.0       0.0       0.0       0.3       0.1
 8 H  s               2.2       2.1      10.9       1.5       1.1       1.6
 9 H  s               2.6       1.8       2.6      11.3       4.8       0.6
10 H  s              14.5       4.7       2.1       0.6       0.3       7.8
11 H  s               0.1       3.2       7.7       3.6       3.3       3.0
12 H  s               9.6       0.5       0.1       5.2       8.4       7.4
13 H  s               1.3       8.6       0.7       1.4       0.0       0.6
14 H  s              26.9       0.1       1.2       0.2       0.2       0.3
15 H  s               1.1      17.2       8.0       0.4      10.5       0.4
16 H  s               3.8       0.0       9.0      21.6       2.2       4.5
17 H  s               1.3      12.3       2.8       0.9       0.3       1.3
18 H  s               0.5       4.2      11.0      10.6       0.4      13.1
19 H  s               1.8       1.2       0.7       0.2      25.5      17.5

                     42        43        44        45        46        47   
                   0.13092   0.13498   0.14067   0.14445   0.17963   0.18851
                   0.00000   0.00000   0.00000   0.00000   0.00000   0.00000
                  --------  --------  --------  --------  --------  --------
 0 C  s               0.2       0.2       0.0       0.1       0.1       1.5
 0 C  pz             10.1       0.3       3.0       0.2       0.2       0.9
 0 C  px              4.4       0.8       1.4       0.1       0.4      10.3
 0 C  py              0.7       2.4      11.0       0.1       0.2       0.5
 0 C  dz2             0.0       0.1       0.8       0.0       0.0       1.2
 0 C  dxz             0.6       0.0       0.0       0.2       0.0       0.2
 0 C  dyz             0.4       0.0       0.1       0.1       0.0       0.3
 0 C  dx2y2           0.1       0.1       0.2       0.2       0.1       1.1
 0 C  dxy             0.1       0.0       0.1       0.6       0.1       0.7
 1 C  s               0.5       1.2       0.0       0.2       0.3       7.9
 1 C  pz              0.7       0.0       0.5       6.6       0.3      12.2
 1 C  px              1.0       0.1       0.2       0.6       0.5       0.3
 1 C  py              0.4       0.7       2.0       7.7       0.0       8.3
 1 C  dz2             0.0       0.0       0.3       0.1       0.0       0.0
 1 C  dxz             0.4       0.0       0.2       0.2       0.1       0.9
 1 C  dyz             0.2       0.0       0.1       0.0       0.1       2.2
 1 C  dx2y2           0.0       0.0       0.0       0.2       0.0       1.1
 1 C  dxy             0.2       0.2       0.7       0.2       0.0       0.1
 2 C  s               2.5       0.0       0.0       0.0       0.1       1.3
 2 C  pz              0.8       0.4       1.1       2.6       0.1       3.9
 2 C  px              1.2       0.0       0.3       1.7       1.1      17.0
 2 C  py              0.5       0.2       3.2       6.4       0.2       0.6
 2 C  dz2             0.0       0.0       0.5       0.0       0.1       0.4
 2 C  dxz             0.0       0.0       0.0       0.0       0.0       2.7
 2 C  dx2y2           0.0       0.0       0.1       0.2       0.0       0.3
 2 C  dxy             0.0       0.1       0.2       0.3       0.2       2.2
 3 C  s               0.1       0.3       0.4       0.1       6.4       2.9
 3 C  pz              0.0       0.5       0.1       1.4       0.4       1.6
 3 C  px              0.2       0.3       0.1       0.2       1.0       2.6
[...]
 2 C  px              2.6       0.4       0.0       0.0       0.1       0.2
 2 C  py              0.1       0.1       0.0       0.0       0.1       0.0
 2 C  dz2             1.0       1.5       0.1       0.3       0.0       0.2
 2 C  dxz            10.6       0.3       0.2       0.2       1.5       0.0
 2 C  dyz             0.1       0.0       0.1       0.1       0.5       0.0
 2 C  dx2y2           0.4       0.2       0.0       0.4       2.4       1.2
 2 C  dxy             6.1       0.8       0.0       0.4       1.5       0.1
 3 C  s               1.0       0.1       0.0       0.0       0.2       1.1
 3 C  pz              0.0       0.0       0.0       1.1       0.0       0.3
 3 C  px              0.8       0.4       0.0       0.0       0.4       1.6
 3 C  py              0.2       0.3       0.0       0.1       0.3       1.5
 3 C  dz2             0.1       2.3       0.1       0.1       0.6       2.4
 3 C  dxz             0.0       0.0       1.9       9.0       2.1       0.3
 3 C  dyz             0.0       0.6       0.2       0.0       0.4       0.1
 3 C  dx2y2           0.3       0.2       0.0       1.4      10.0       0.0
 3 C  dxy             0.5       0.1       0.1       1.5       0.4       2.9
 4 O  s               0.0       0.0       0.0       0.1       1.3       0.4
 4 O  pz              0.0       0.0       0.0       0.2       0.1       0.0
 4 O  px              0.0       0.0       0.0       0.0       0.2       0.5
 4 O  py              0.0       0.0       0.0       0.1       0.4       0.3
 4 O  dz2             0.6      47.1       0.4       7.4       2.1       0.4
 4 O  dxz             5.3       0.0       3.8       8.8       0.0       1.9
 4 O  dyz             0.9       5.6       2.9       9.6       3.3       0.4
 4 O  dx2y2           1.3      25.5       0.7       0.8       0.7       0.9
 4 O  dxy             0.3       0.3       0.4       0.0       9.7      22.2
 5 O  s               0.0       0.1       0.0       0.0       0.5       7.6
 5 O  pz              0.0       0.1       1.0       0.5       0.0       0.1
 5 O  px              0.0       0.1       0.0       0.2       1.4       0.1
 5 O  py              0.0       0.4       0.2       0.0       1.0       0.9
 5 O  dz2             0.7       2.2      10.9       1.2      20.6      28.3
 5 O  dxz             0.1       0.0      20.8      24.6       6.7       1.5
 5 O  dyz             3.2       3.8      27.4      21.9       5.6       4.8
 5 O  dx2y2           3.3       1.4       4.5       0.0      11.2      10.6
 5 O  dxy             0.5       0.0       2.6       6.5       4.4       1.9
 6 C  s               0.0       0.4       0.2       0.1       0.5       0.5
 6 C  pz              0.0       0.2       0.2       0.0       0.0       0.0
 6 C  px              0.0       0.3       0.1       0.0       0.8       0.6
 6 C  py              0.0       0.1       0.1       0.0       0.0       0.1
 6 C  dz2             0.0       0.4       0.6       0.0       2.1       1.0
 6 C  dxz             0.0       0.5      13.1       0.4       0.3       0.3
 6 C  dyz             0.0       0.2       0.8       0.7       0.1       0.1
 6 C  dx2y2           0.2       0.4       0.3       1.0       3.2       0.2
 6 C  dxy             0.3       0.5       0.9       0.1       0.0       1.8
 7 C  s               0.0       0.2       0.1       0.0       0.0       0.0
 7 C  pz              0.0       0.1       0.2       0.0       0.1       0.0
 7 C  dz2             0.0       0.1       3.3       0.1       0.1       0.0
 7 C  dxz             0.0       0.3       0.2       0.1       0.2       0.1
 7 C  dyz             0.0       0.0       0.3       0.2       0.0       0.1
 7 C  dx2y2           0.0       0.0       0.4       0.0       0.0       0.0
 7 C  dxy             0.0       0.0       0.2       0.0       0.0       0.0
10 H  s               0.1       0.0       0.0       0.0       0.0       0.0
15 H  s               0.0       0.1       0.0       0.0       0.0       0.0
16 H  s               0.0       0.1       0.0       0.1       0.0       0.0
19 H  s               0.0       0.0       0.2       0.0       0.0       0.0

                    132       133       134       135   
                   3.11938   3.32260   3.49259   3.55745
                   0.00000   0.00000   0.00000   0.00000
                  --------  --------  --------  --------
 2 C  s               0.0       0.2       0.1       0.0
 2 C  px              0.0       0.1       0.3       0.1
 2 C  dz2             0.0       0.0       0.3       0.0
 2 C  dxz             0.8       0.2       0.0       0.1
 2 C  dx2y2           0.1       0.1       1.5       0.1
 2 C  dxy             0.0       0.5       0.2       0.4
 3 C  s               0.0       3.8       0.2       6.0
 3 C  pz              0.3       0.0       0.2       0.4
 3 C  px              0.0       1.5       0.9       0.1
 3 C  py              0.1       0.2       2.1       4.2
 3 C  dz2             4.5       0.6       0.1       0.6
 3 C  dxz             0.3       0.0       2.2       0.1
 3 C  dyz            13.6       0.2       0.0       2.4
 3 C  dx2y2           1.6       4.6       0.1       7.7
 3 C  dxy             0.3       1.0      19.3       1.5
 4 O  s               0.0       1.8       0.7       4.5
 4 O  pz              0.9       0.1       0.1       0.3
 4 O  px              0.0       0.2       0.6       0.2
 4 O  py              0.1       0.7       0.4       3.1
 4 O  dz2            13.7       2.3       0.4       6.7
 4 O  dxz             1.5       0.6       1.5       0.6
 4 O  dyz            37.7       4.4       1.8      11.1
 4 O  dx2y2           4.0       7.2       6.3      29.5
 4 O  dxy             0.2       5.3      17.0       6.4
 5 O  s               0.1       0.1       0.8       0.3
 5 O  px              0.0       2.4       3.3       0.0
 5 O  py              0.0       0.2       0.3       0.1
 5 O  dz2             1.3       0.9       2.3       1.5
 5 O  dxz            13.8       2.6       3.6       0.0
 5 O  dyz             0.1       1.3       0.1       0.2
 5 O  dx2y2           0.0      21.1       3.4      10.5
 5 O  dxy             2.7      26.8      27.4       0.0
 6 C  s               0.0       0.8       0.3       0.0
 6 C  px              0.0       1.4       0.4       0.1
 6 C  py              0.0       0.3       0.0       0.1
 6 C  dz2             0.2       1.4       0.1       0.1
 6 C  dxz             0.7       0.2       0.0       0.1
 6 C  dyz             0.3       0.0       0.0       0.0
 6 C  dx2y2           0.1       1.6       1.0       0.0
 6 C  dxy             0.1       2.7       0.0       0.6
 7 C  dz2             0.1       0.0       0.0       0.0
 7 C  dxz             0.0       0.1       0.0       0.0


                      *****************************
                      * MAYER POPULATION ANALYSIS *
                      *****************************

  NA   - Mulliken gross atomic population
  ZA   - Total nuclear charge
  QA   - Mulliken gross atomic charge
  VA   - Mayer's total valence
  BVA  - Mayer's bonded valence
  FA   - Mayer's free valence

  ATOM       NA         ZA         QA         VA         BVA        FA
  0 C      6.2531     6.0000    -0.2531     4.0112     4.0112    -0.0000
  1 C      6.2143     6.0000    -0.2143     4.1782     4.1782    -0.0000
  2 C      6.1588     6.0000    -0.1588     3.9320     3.9320    -0.0000
  3 C      5.8768     6.0000     0.1232     4.3821     4.3821     0.0000
  4 O      8.2113     8.0000    -0.2113     2.2822     2.2822    -0.0000
  5 O      8.2360     8.0000    -0.2360     2.2712     2.2712    -0.0000
  6 C      6.0109     6.0000    -0.0109     4.0537     4.0537    -0.0000
  7 C      6.3047     6.0000    -0.3047     4.0135     4.0135     0.0000
  8 H      0.9025     1.0000     0.0975     0.9582     0.9582     0.0000
  9 H      0.9034     1.0000     0.0966     0.9549     0.9549    -0.0000
 10 H      0.8942     1.0000     0.1058     0.9505     0.9505     0.0000
 11 H      0.9077     1.0000     0.0923     0.9428     0.9428    -0.0000
 12 H      0.8913     1.0000     0.1087     0.9626     0.9626    -0.0000
 13 H      0.8889     1.0000     0.1111     0.9572     0.9572     0.0000
 14 H      0.9030     1.0000     0.0970     0.9727     0.9727    -0.0000
 15 H      0.8992     1.0000     0.1008     0.9504     0.9504    -0.0000
 16 H      0.8943     1.0000     0.1057     0.9767     0.9767    -0.0000
 17 H      0.8728     1.0000     0.1272     0.9687     0.9687    -0.0000
 18 H      0.8881     1.0000     0.1119     0.9572     0.9572    -0.0000
 19 H      0.8886     1.0000     0.1114     0.9549     0.9549    -0.0000

  Mayer bond orders larger than 0.100000
B(  0-C ,  1-C ) :   1.1575 B(  0-C ,  8-H ) :   0.9544 B(  0-C ,  9-H ) :   0.9527 
B(  0-C , 10-H ) :   0.9534 B(  1-C ,  2-C ) :   1.1278 B(  1-C , 11-H ) :   0.9332 
B(  1-C , 12-H ) :   0.9187 B(  2-C ,  3-C ) :   1.0211 B(  2-C , 13-H ) :   0.8872 
B(  2-C , 14-H ) :   0.9098 B(  3-C ,  4-O ) :   2.0343 B(  3-C ,  5-O ) :   1.2235 
B(  5-O ,  6-C ) :   0.9224 B(  6-C ,  7-C ) :   1.1729 B(  6-C , 15-H ) :   0.9377 
B(  6-C , 16-H ) :   0.9141 B(  7-C , 17-H ) :   0.9463 B(  7-C , 18-H ) :   0.9490 
B(  7-C , 19-H ) :   0.9446 

-------
TIMINGS
-------

Total SCF time: 0 days 0 hours 0 min 8 sec 

Total time                  ....       8.266 sec
Sum of individual times     ....       7.763 sec  ( 93.9%)

SCF preparation             ....       0.169 sec  (  2.0%)
Fock matrix formation       ....       6.767 sec  ( 81.9%)
  Startup                   ....       0.060 sec  (  0.9% of F)
  Split-RI-J                ....       2.389 sec  ( 35.3% of F)
  XC integration            ....       3.784 sec  ( 55.9% of F)
    Basis function eval.    ....       1.366 sec  ( 36.1% of XC)
    Density eval.           ....       0.470 sec  ( 12.4% of XC)
    XC-Functional eval.     ....       0.367 sec  (  9.7% of XC)
    XC-Potential eval.      ....       0.737 sec  ( 19.5% of XC)
Diagonalization             ....       0.000 sec  (  0.0%)
Density matrix formation    ....       0.186 sec  (  2.3%)
Total Energy calculation    ....       0.033 sec  (  0.4%)
Population analysis         ....       0.081 sec  (  1.0%)
Orbital Transformation      ....       0.046 sec  (  0.6%)
Orbital Orthonormalization  ....       0.000 sec  (  0.0%)
DIIS solution               ....       0.320 sec  (  3.9%)
  MO trafo                  ....       0.000 sec  (  0.0 % of DIIS)
  Orb grad                  ....       0.000 sec  (  0.0 % of DIIS)
  Energy W gradient         ....       0.000 sec  (  0.0 % of DIIS)
  DIIS error                ....       0.005 sec  (  1.5 % of DIIS)
  DIIS work                 ....       0.278 sec  ( 87.0 % of DIIS)
  Form Q                    ....       0.000 sec  (  0.0 % of DIIS)
  Form QpQm                 ....       0.000 sec  (  0.0 % of DIIS)
  Exp/Cayley                ....       0.000 sec  (  0.0 % of DIIS)
  Orb update                ....       0.000 sec  (  0.0 % of DIIS)
  Wake-sleep                ....       0.015 sec  (  4.7 % of DIIS)
SOSCF solution              ....       0.161 sec  (  1.9%)
  MO trafo                  ....       0.055 sec  ( 34.1 % of SOSCF)
  Orb grad                  ....       0.003 sec  (  1.9 % of SOSCF)
  Rot update                ....       0.067 sec  ( 41.8 % of SOSCF)
  Step                      ....       0.036 sec  ( 22.1 % of SOSCF)
Finished LeanSCF after   8.4 sec

Maximum memory used throughout the entire LEANSCF-calculation: 12.7 MB


-------------------------------------------------------------------------------
                          DFT DISPERSION CORRECTION                            
                                                                               
                                DFTD4 V3.4.0                                   
-------------------------------------------------------------------------------
The PBE functional is recognized
Active option DFTDOPT                   ...         5   

-------------------------   ----------------
Dispersion correction           -0.014620785
-------------------------   ----------------

------------------   -----------------
gCP correction             0.089812349
------------------   -----------------

-------------------------   --------------------
FINAL SINGLE POINT ENERGY      -385.458663633739
-------------------------   --------------------


------------------------------------------------------------------------------
                              ORCA PROPERTY CALCULATIONS
------------------------------------------------------------------------------

GBWName                                 ... sp.gbw
Number of atoms                         ...     20
Number of basis functions               ...    136
Max core memory                         ...   1024 MB

Electric properties:
Dipole moment                           ... YES
Quadrupole moment                       ...  NO
Static polarizability (Dipole/Dipole)   ...  NO
Static polarizability (Dipole/Quad.)    ...  NO
Static polarizability (Quad./Quad.)     ...  NO
Static polarizability (Velocity)        ...  NO

Atomic electric properties:
Dipole moment                           ...  NO
Quadrupole moment                       ...  NO
Static polarizability                   ...  NO

Choice of electric origin               ... Center of mass
Position of electric origin             ...    -0.000015    -0.000011     0.000007

General magnetic properties:
Magnetizability                         ...  NO

EPR properties:
g-Tensor (aka g-matrix)                 ...  NO
Zero-Field splitting spin-orbit         ...  NO
Zero-field splitting spin-spin          ...  NO
Hyperfine couplings                     ...  NO (   0 nuclei)
Quadrupole couplings                    ...  NO (   0 nuclei)
Contact density                         ...  NO (   0 nuclei)

NMR properties:
Chemical shifts                         ...  NO (   0 nuclei)
Spin-rotation constants                 ...  NO (   0 nuclei)
Spin-spin couplings                     ...  NO (   0 nuclei,    0 pairs)

Choice of magnetic origin               ... GIAO
Position of magnetic origin             ...     0.000000     0.000000     0.000000

Properties with geometric perturbations:
SCF Hessian                             ...  NO
IR spectrum                             ...  NO
VCD spectrum                            ...  NO
X-ray spectroscopy properties:
SCF XES/XAS/RIXS spectra                ...  NO


-------------
DIPOLE MOMENT
-------------

Method             : SCF
Type of density    : Electron Density
Multiplicity       :   1
Irrep              :   0
Energy             :  -385.5338551983303432 Eh
Relativity type    : 
Basis              : AO
                                X                 Y                 Z
Electronic contribution:      3.817865708       2.514566476      -2.478523866
Nuclear contribution   :     -3.553283601      -3.092610663       2.350700966
                        -----------------------------------------
Total Dipole Moment    :      0.264582107      -0.578044187      -0.127822900
                        -----------------------------------------
Magnitude (a.u.)       :      0.648442340
Magnitude (Debye)      :      1.648209442



--------------------
Rotational spectrum 
--------------------
 
Rotational constants in cm-1:             0.180172             0.028886             0.028172 
Rotational constants in MHz :          5401.432107           865.992650           844.571935 

Dipole components along the rotational axes: 
x,y,z [a.u.] :     0.209246     0.604720     0.104915 
x,y,z [Debye]:     0.531862     1.537076     0.266673 

 

Dipole moment calculation done in   0.0 sec 

Maximum memory used throughout the entire PROP-calculation: 7.9 MB

--------------------------------
SUGGESTED CITATIONS FOR THIS RUN
--------------------------------

Below you find a list of papers that are relevant to this ORCA run
We neither can nor want to force you to cite these papers, but we appreciate if you do
You receive ORCA, which is the product of decades of hard work by many enthusiastic individuals, for free
The only thing we kindly ask in return is that you cite our papers,
We deeply appreciate it, if you show your appreciation for ORCA by not just citing the generic ORCA reference.

Please note that relegating all ORCA citations to the supporting information does *not* help us.
SI sections are not indexed - citations you put there will not count into any citation statistics
But we need these citations in order to attract the funding resources that allow us to do what we are doing

Therefore, if you are a happy ORCA user, please consider citing a few of the papers listed below in the main body of your paper

In addition to the list printed below, the program has created the file sp.bibtex that contains the list in bibtex format
You can import this file easily into all common literature databanks and citation aid programs


List of essential papers. We consider these as the minimum necessary citations

  1. Neese,F.
     Software update: the ORCA program system, version 5.0
     WIRES Comput. Molec. Sci., 2022 12(1)e1606
     doi.org/10.1002/wcms.1606

List of papers to cite with high priority. The work reported in these papers was absolutely
necessary for this run to complete.
Our perspective: the developers of density functionals and basis sets usually get cited in chemistry papers
Good! But without the algorithms to do something with them, the functionals or basis sets would not do anything.
Hence, in our opinion, the algorithm design and method developments papers are equally worthy of getting cited

  1. Neese,F.
     An improvement of the resolution of the identity approximation for the formation of the Coulomb matrix
     J. Comp. Chem., 2003 24(14)1740-1747
     doi.org/10.1002/jcc.10318
  2. Neese,F.
     The SHARK Integral Generation and Digestion System
     J. Comp. Chem., 2022  1-16
     doi.org/10.1002/jcc.26942
  3. Caldeweyher,E.; Bannwarth,C.; Grimme,S.
     Extension of the D3 dispersion coefficient model
     J. Chem. Phys., 2017 147 034112-XXXX
     doi.org/10.1063/1.4993215
  4. Caldeweyher,E.; Ehlert,S.; Hansen,A.; Neugebauer,H.; Spicher,S.; Bannwarth,C.; Grimme,S.
     A generally applicable atomic-charge dependent London dispersion correction
     J. Chem. Phys., 2019 150 154122-XXXX
     doi.org/10.1063/1.5090222
  5. Caldeweyher,E.; Mewes,J.; Ehlert,S.; Grimme,S.
     Extension and evaluation of the D4 London-dispersion model for periodic systems
     Phys. Chem. Chem. Phys., 2020 22(16)8499-8512
     doi.org/10.1039/D0CP00502A

List of suggested additional citations. These are papers that are important in the 'surrounding' of 
of this run, or papers that preceded the highly important papers. If you like your results we are grateful for a citation.

  1. Neese,F.
     The ORCA program system
     WIRES Comput. Molec. Sci., 2012 2(1)73-78
     doi.org/10.1002/wcms.81
  2. Neese,F.
     Software update: the ORCA program system, version 4.0
     WIRES Comput. Molec. Sci., 2018 8(1)1-6
     doi.org/10.1002/wcms.1327
  3. Neese,F.; Wennmohs,F.; Becker,U.; Riplinger,C.
     The ORCA quantum chemistry program package
     J. Chem. Phys., 2020 152 Art. No. L224108
     doi.org/10.1063/5.0004608

List of optional additional citations

  1. Neese,F.
     Approximate second-order SCF convergence for spin unrestricted wavefunctions
     Chem. Phys. Lett., 2000 325(1-3)93-98
     doi.org/10.1016/s0009-2614(00)00662-x

Timings for individual modules:

Sum of individual times          ...       10.025 sec (=   0.167 min)
Startup calculation              ...        0.746 sec (=   0.012 min)   7.4 %
SCF iterations                   ...        9.167 sec (=   0.153 min)  91.4 %
Property calculations            ...        0.113 sec (=   0.002 min)   1.1 %
                             ****ORCA TERMINATED NORMALLY****
TOTAL RUN TIME: 0 days 0 hours 0 minutes 10 seconds 731 msec
