20
 energy: -27.121049358037 gnorm: 0.034649632539 xtb: 6.7.1 (edcfbbe)
C           -3.68715592852710       -0.76206484980920        0.07363957135565
C           -2.48299438283639        0.13822876028723        0.33039435267775
C           -1.18136249631065       -0.54264400966396       -0.07687711508426
C            0.03722692900782        0.30465842228849        0.15363157701509
O            0.03069389162497        1.49938212958062        0.40294176789648
O            1.17036181364926       -0.41415134291633        0.03457667678218
C            2.42682415204244        0.31825932600602        0.19735281932755
C            3.54604598442191       -0.68050829814958        0.04920439994697
H           -4.61711940486374       -0.26844657147670        0.37210380852003
H           -3.76714022129548       -1.01723261643550       -0.98882553322749
H           -3.60721176813665       -1.69798190450119        0.63751789322157
H           -2.43376775164134        0.40329155800389        1.39294422150057
H           -2.59233117759737        1.07583135212334       -0.22506724212022
H           -1.19502370901026       -0.79309281679582       -1.14688002222463
H           -1.04643695102625       -1.49268994441475        0.45247198310087
H            2.47077756638912        1.09999899532953       -0.56710895840150
H            2.42668034203505        0.78797100322909        1.18543878690845
H            3.52701073641382       -1.15076929972687       -0.93815649811188
H            4.50296906387249       -0.16289221745280        0.16447030939623
H            3.48241760478470       -1.45850457514252        0.81542741034868
20
 energy: -27.122092605503 gnorm: 0.013183844050 xtb: 6.7.1 (edcfbbe)
C           -3.68082680429733       -0.76153577778390        0.07275906291878
C           -2.47773891617532        0.13538060008387        0.32995006342398
C           -1.17808050522901       -0.54957174180978       -0.07910310882409
C            0.03538739331284        0.30602163931709        0.15163625443518
O            0.02654589429682        1.49312526248245        0.40330631221536
O            1.16319155253191       -0.40172758888173        0.03450823317831
C            2.41681984654333        0.31166933456648        0.19687453889786
C            3.54863594662060       -0.67985350864788        0.04959516329277
H           -4.59989774945600       -0.26141328704751        0.37240301522943
H           -3.75699963801206       -1.01045251026068       -0.98505483504482
H           -3.59762135864503       -1.68943075316047        0.63742741329857
H           -2.42845427383864        0.39711477931157        1.38995681929349
H           -2.58238023344390        1.06988016661909       -0.22622378123585
H           -1.19713247536713       -0.79369123541257       -1.14671774981828
H           -1.04081080523676       -1.49199829435832        0.45698769245420
H            2.45697524270176        1.09614506393573       -0.56387583091061
H            2.41063432607654        0.78383281799158        1.18310360029473
H            3.51808600333341       -1.14770570776110       -0.93182583046295
H            4.49996373555001       -0.16376171352368        0.16491480459205
H            3.47416711173032       -1.45538444529724        0.80857837159999
20
 energy: -27.122284994712 gnorm: 0.004195172125 xtb: 6.7.1 (edcfbbe)
C           -3.67731062901225       -0.76033034283813        0.07207195851879
C           -2.47107777612938        0.13258518624527        0.32983918252733
C           -1.17305697824584       -0.55716028796152       -0.08095983290373
C            0.03732786434581        0.30546713430131        0.15051768998888
O            0.02434451032458        1.49106096411583        0.40269521973438
O            1.16129950242050       -0.39490997281614        0.03300436337399
C            2.40764944036301        0.31149646543042        0.19696797014983
C            3.54265799392987       -0.68117029811540        0.04927691332967
H           -4.59051613963673       -0.25541663448360        0.37258281568997
H           -3.75132895490969       -1.00591488562523       -0.98371548935587
H           -3.59344923971058       -1.68488307257465        0.63660883543718
H           -2.41958137828641        0.39215644499217        1.38867419209415
H           -2.56940019277503        1.06626915164509       -0.22642430656817
H           -1.19640335249377       -0.79921825592735       -1.14649446946547
H           -1.03411322893375       -1.49355570559567        0.46125071925497
H            2.45253883199213        1.09942589732046       -0.56097119835753
H            2.40323776464667        0.78467923364833        1.18354983266164
H            3.50659151813322       -1.14575404206689       -0.93097034098812
H            4.48858457951391       -0.16299660733194        0.16574848899046
H            3.46247015746010       -1.45518727199936        0.80594766471575
20
 energy: -27.122306154451 gnorm: 0.001634714097 xtb: 6.7.1 (edcfbbe)
C           -3.67720962446777       -0.75956048738764        0.07184432892488
C           -2.46885204987015        0.13112401710654        0.33026466496634
C           -1.17148092371927       -0.56021246866931       -0.08133567072773
C            0.03809141720617        0.30538140267307        0.14811935780759
O            0.02134233570276        1.49154675612395        0.40157336153168
O            1.16207096500275       -0.39238904285236        0.03088390242672
C            2.40542593482869        0.31297920708747        0.19725350315784
C            3.54001051097791       -0.68149428951051        0.04920338350800
H           -4.58931447840924       -0.25264833734152        0.37276048654791
H           -3.75111641547437       -1.00416980124404       -0.98431857229419
H           -3.59454753110902       -1.68458967469473        0.63604294542998
H           -2.41605197209016        0.38973793765451        1.38925584642073
H           -2.56450805166354        1.06534141427641       -0.22556118549237
H           -1.19610043349760       -0.80391577596804       -1.14605036794534
H           -1.03065220685639       -1.49447955026678        0.46355177638031
H            2.45478650007388        1.10297598445663       -0.55902562644535
H            2.40300550967699        0.78595491202727        1.18451450172493
H            3.50231043036362       -1.14476321477054       -0.93178467271849
H            4.48611505612136       -0.16429384356538        0.16656746345027
H            3.45713932019975       -1.45588204477199        0.80544078217438
20
 energy: -27.122312396389 gnorm: 0.001270334848 xtb: 6.7.1 (edcfbbe)
C           -3.67787218679293       -0.75828351965418        0.07109287624070
C           -2.46713936684968        0.12917741534889        0.33087940136580
C           -1.17024307934773       -0.56326458010381       -0.08057481811028
C            0.03852369180194        0.30527349331573        0.14642330595640
O            0.01656710341287        1.49259775362253        0.39843376854323
O            1.16387447526455       -0.38896184566265        0.02776206160510
C            2.40484231077904        0.31570576228408        0.19709216903882
C            3.53785194540055       -0.68151011922313        0.04891766594625
H           -4.58927496513943       -0.24935544375050        0.37235035465320
H           -3.75231793880164       -1.00183180283788       -0.98583660670389
H           -3.59809566049241       -1.68480085215430        0.63435179540294
H           -2.41373843525041        0.38626372668444        1.39044057455822
H           -2.56008957000328        1.06462878257516       -0.22365226475057
H           -1.19555021148130       -0.81174661713696       -1.14419709935687
H           -1.02700607419360       -1.49501611345009        0.46814495718679
H            2.45926826921843        1.10820286498988       -0.55694974102674
H            2.40391622117261        0.78751136083900        1.18546458213720
H            3.49926189977803       -1.14354603389338       -0.93311847285662
H            4.48586614149470       -0.16752425600970        0.16770145436790
H            3.45181972302606       -1.45687687542012        0.80447424463051
20
 energy: -27.122314349796 gnorm: 0.000471588619 xtb: 6.7.1 (edcfbbe)
C           -3.67797242773799       -0.75806641076403        0.07060847145005
C           -2.46745801457657        0.12896100777274        0.33140625130549
C           -1.17047777280776       -0.56319519288272       -0.07954149439758
C            0.03828167351332        0.30575001586634        0.14515971980053
O            0.01645567662379        1.49264072144409        0.39778516128180
O            1.16392175284580       -0.38865250747447        0.02699763316584
C            2.40567260670687        0.31589835306071        0.19686744879675
C            3.53834020639024       -0.68132560064557        0.04889317041763
H           -4.58940041412544       -0.24919248352091        0.37169244811685
H           -3.75235351974929       -1.00115934045341       -0.98638567181978
H           -3.59894253510301       -1.68490206647026        0.63334439222894
H           -2.41487831738957        0.38571856255542        1.39110218706167
H           -2.56041901237913        1.06464698409997       -0.22272950426624
H           -1.19603288540505       -0.81319406310165       -1.14291851927176
H           -1.02696016909028       -1.49466725583076        0.46984978934670
H            2.45975105224275        1.10809741648748       -0.55723753947377
H            2.40378103512974        0.78737799512420        1.18525488100147
H            3.50036142966370       -1.14323045842698       -0.93316035970997
H            4.48670555767590       -0.16798025553128        0.16809375664813
H            3.45208837056833       -1.45688232094591        0.80411798714534
20
 energy: -27.122315516622 gnorm: 0.000455271921 xtb: 6.7.1 (edcfbbe)
C           -3.67805294008402       -0.75752480320965        0.06938035112449
C           -2.46755468915568        0.12863626038021        0.33206216695878
C           -1.17047563678664       -0.56382714552121       -0.07749997950300
C            0.03799307690852        0.30573411769898        0.14573645713773
O            0.01634490583406        1.49275755589557        0.39634676621119
O            1.16383013796745       -0.38836120297684        0.02627529233401
C            2.40624304568426        0.31625826939422        0.19591578465495
C            3.53864623944985       -0.68102124530368        0.04857656483911
H           -4.58935098435053       -0.24840776191032        0.37012938762850
H           -3.75176835908184       -0.99960162401117       -0.98777637888403
H           -3.60017237831076       -1.68481770682391        0.63131295054186
H           -2.41639846409064        0.38466243512215        1.39198429031599
H           -2.55954390856928        1.06476382430325       -0.22147473985125
H           -1.19603507180148       -0.81664023668870       -1.14028972069732
H           -1.02676978342453       -1.49406930593452        0.47401160850062
H            2.45990258012528        1.10811324757336       -0.55832419892486
H            2.40343139780294        0.78752238560375        1.18426920996760
H            3.50138307713018       -1.14270923207572       -0.93348964350478
H            4.48712038310784       -0.16813806724316        0.16860518751136
H            3.45169166464137       -1.45668666390961        0.80344885246715
20
 energy: -27.122316540611 gnorm: 0.000389469084 xtb: 6.7.1 (edcfbbe)
C           -3.67831315224117       -0.75682549684856        0.06809302078395
C           -2.46736884653569        0.12817614651304        0.33287045560479
C           -1.17023576752798       -0.56495543368453       -0.07543437231332
C            0.03798992152048        0.30560834539138        0.14535173919093
O            0.01606820063679        1.49268404126152        0.39580002718725
O            1.16388915769591       -0.38816641585325        0.02542437127225
C            2.40626333323484        0.31669463536350        0.19497745717514
C            3.53860861387823       -0.68074850215363        0.04830486084371
H           -4.58949048208278       -0.24726494202028        0.36845389489163
H           -3.75109738109871       -0.99777777667850       -0.98937067385862
H           -3.60158561136987       -1.68468626559833        0.62922821666507
H           -2.41737319687826        0.38349291300500        1.39301418001969
H           -2.55777106415041        1.06473602097777       -0.22022185749954
H           -1.19605186121655       -0.82038588806781       -1.13754876144042
H           -1.02600809145478       -1.49371581236079        0.47840916607227
H            2.46005316134518        1.10821481795260       -0.55958146557130
H            2.40312009024085        0.78832258058788        1.18315211816836
H            3.50193935136716       -1.14223488427937       -0.93387014899724
H            4.48703579161142       -0.16802491120754        0.16917989541460
H            3.45079212602172       -1.45650007193709        0.80296808521890
20
 energy: -27.122318060574 gnorm: 0.000231151623 xtb: 6.7.1 (edcfbbe)
C           -3.67895392164082       -0.75520755351681        0.06500815938936
C           -2.46723674027034        0.12750569118625        0.33463642693811
C           -1.16991973308021       -0.56736401004650       -0.07045090985527
C            0.03807083649179        0.30467008708611        0.14608224445725
O            0.01577512591472        1.49211873233514        0.39531615695938
O            1.16413730793684       -0.38841479471676        0.02452838462162
C            2.40616030317762        0.31742254546331        0.19252356394909
C            3.53880775351606       -0.68003582339491        0.04760002368553
H           -4.59013013704672       -0.24496097016325        0.36428997426147
H           -3.74945506774357       -0.99370740188587       -0.99321087635522
H           -3.60479895452392       -1.68442453015777        0.62432734435295
H           -2.42006028598848        0.38156104725672        1.39521815867708
H           -2.55411196081527        1.06480188105945       -0.21779932980190
H           -1.19572541182627       -0.82827306854379       -1.13116424227993
H           -1.02508353473915       -1.49303312349676        0.48829686764377
H            2.45967812866269        1.10760016102557       -0.56348724945260
H            2.40299171578118        0.79089769758348        1.17984225731348
H            3.50373733824169       -1.14155609418624       -0.93466450509583
H            4.48696886058731       -0.16720723368127        0.17010405457486
H            3.44961267036121       -1.45575013884310        0.80220370484489
20
 energy: -27.122318809990 gnorm: 0.000150855375 xtb: 6.7.1 (edcfbbe)
C           -3.67933188372641       -0.75418923277335        0.06301516797484
C           -2.46732110903519        0.12724084175616        0.33559309807651
C           -1.16985260237395       -0.56875253792125       -0.06712622866783
C            0.03815280052476        0.30376682841363        0.14747580352455
O            0.01576386162728        1.49141412671363        0.39594811526063
O            1.16432799072525       -0.38892727479112        0.02483864812661
C            2.40602855615397        0.31762710922634        0.19075954145924
C            3.53916225741338       -0.67953403005687        0.04714811403222
H           -4.59062123553864       -0.24364693265525        0.36148830343881
H           -3.74827029857049       -0.99122632355772       -0.99564106648916
H           -3.60672370282501       -1.68420318161183        0.62121236469920
H           -2.42210556415313        0.38081172415628        1.39635276013053
H           -2.55209718962447        1.06481555320926       -0.21667805343791
H           -1.19531801204937       -0.83250499367082       -1.12710860373419
H           -1.02527216438862       -1.49288127353666        0.49417615861222
H            2.45891585216181        1.10643875078387       -0.56678389823920
H            2.40336828521114        0.79307714744376        1.17716056918967
H            3.50510222260068       -1.14149360194551       -0.93495234464188
H            4.48699079211278       -0.16625086819376        0.17027711655656
H            3.44956543675059       -1.45493873062579        0.80204464295666
20
 energy: -27.122319245194 gnorm: 0.000097081276 xtb: 6.7.1 (edcfbbe)
C           -3.67947047174879       -0.75376072545808        0.06206602804726
C           -2.46747584579018        0.12727025819131        0.33592062267633
C           -1.16993175180066       -0.56926545412344       -0.06557273299489
C            0.03816691105603        0.30311959281817        0.14885745945695
O            0.01582328769719        1.49079065807302        0.39724175237182
O            1.16441897627006       -0.38944863884111        0.02560082616476
C            2.40595793468429        0.31758762512404        0.18980879892461
C            3.53945959038571       -0.67928138433537        0.04694396281728
H           -4.59087798966845       -0.24316412663176        0.36010592390887
H           -3.74775164102510       -0.99031187577796       -0.99675249887675
H           -3.60753492390836       -1.68406380039796        0.61987298273006
H           -2.42323958144955        0.38093531326885        1.39670053705882
H           -2.55140640689264        1.06482816562538       -0.21650615385380
H           -1.19484804110887       -0.83373990586498       -1.12540171184219
H           -1.02592146966676       -1.49308641072599        0.49637372821784
H            2.45819503018116        1.10531826001510       -0.56894977213228
H            2.40389929130217        0.79458684565209        1.17548291867623
H            3.50583276653988       -1.14192169414618       -0.93485742769136
H            4.48706144518260       -0.16551712752039        0.16991388868243
H            3.45010718275662       -1.45423247458174        0.80235107648611
20
 energy: -27.122319534540 gnorm: 0.000058219310 xtb: 6.7.1 (edcfbbe)
C           -3.67965740245291       -0.75343530894780        0.06137802402790
C           -2.46761916191407        0.12724344368681        0.33599565213065
C           -1.16995897860470       -0.56963446612847       -0.06441871964452
C            0.03818601397948        0.30260741770862        0.15019130884590
O            0.01585137156370        1.49017988996448        0.39891808596114
O            1.16450813918353       -0.38978988279487        0.02622295433699
C            2.40598528784972        0.31759962432915        0.18901098226052
C            3.53972898858120       -0.67907885079743        0.04680717808376
H           -4.59113560157249       -0.24270578456807        0.35897698794655
H           -3.74739033318634       -0.98976896673471       -0.99751703210393
H           -3.60825597207982       -1.68386639754920        0.61903267990971
H           -2.42413372895486        0.38104284331456        1.39676693145198
H           -2.55091355719644        1.06476297826290       -0.21660281987878
H           -1.19431974589869       -0.83446478249129       -1.12419748328487
H           -1.02650277361241       -1.49336462686764        0.49785153575512
H            2.45764072992151        1.10438855049215       -0.57077931445622
H            2.40436517093404        0.79586467420564        1.17406803723357
H            3.50616205637949       -1.14252962070834       -0.93460312851960
H            4.48721245992236       -0.16495888134177        0.16925572989614
H            3.45071133015405       -1.45344875267170        0.80284261887607
20
 energy: -27.122319746866 gnorm: 0.000059494479 xtb: 6.7.1 (edcfbbe)
C           -3.67973454104442       -0.75320467263439        0.06075994954246
C           -2.46769674620221        0.12724490228466        0.33608146007973
C           -1.16997092674830       -0.56996975916189       -0.06349609709813
C            0.03817537772830        0.30220844599457        0.15132989048801
O            0.01580942736908        1.48963888375117        0.40069108960203
O            1.16455168893940       -0.38998921083059        0.02652541835728
C            2.40600976705268        0.31767953500440        0.18835078388182
C            3.53986554165499       -0.67893448868779        0.04667434269166
H           -4.59123613321755       -0.24224232247618        0.35786494814353
H           -3.74700915143226       -0.98954588719702       -0.99816707861927
H           -3.60889910154394       -1.68364189040156        0.61846969989522
H           -2.42481074508929        0.38124793568523        1.39683410594460
H           -2.55047555066157        1.06468268003105       -0.21673877126463
H           -1.19378258146623       -0.83510223346724       -1.12322938716564
H           -1.02695070718822       -1.49361126773252        0.49906023213352
H            2.45730105586144        1.10372542882663       -0.57223702521139
H            2.40466211464861        0.79691055937095        1.17293342114138
H            3.50611114313024       -1.14327010780733       -0.93431055193820
H            4.48729722223012       -0.16453812703391        0.16837618602523
H            3.45124713897548       -1.45264530315522        0.80342759219889
20
 energy: -27.122319985503 gnorm: 0.000062508662 xtb: 6.7.1 (edcfbbe)
C           -3.67989446583781       -0.75296719431840        0.06012598587394
C           -2.46780233033269        0.12720117887057        0.33606081768663
C           -1.16992847823112       -0.57029637772162       -0.06248483057301
C            0.03821115969599        0.30183491086152        0.15258056120738
O            0.01577989061575        1.48904478300229        0.40295403895447
O            1.16463568926166       -0.39006348950425        0.02652648919002
C            2.40608445943012        0.31782581514813        0.18761156813540
C            3.53998876931221       -0.67880501731263        0.04651402569713
H           -4.59148504989359       -0.24171350389264        0.35647170616288
H           -3.74644721205580       -0.98946544373451       -0.99881008198454
H           -3.60969288562533       -1.68333103646788        0.61803426392649
H           -2.42556808834722        0.38141347276346        1.39678188447453
H           -2.55000773627996        1.06455611106697       -0.21699168655938
H           -1.19314826899676       -0.83585473816059       -1.12212542197617
H           -1.02734658130693       -1.49376039561605        0.50048890450423
H            2.45713653085857        1.10319892882838       -0.57368744707936
H            2.40487513928893        0.79790826801668        1.17176915032921
H            3.50575645455175       -1.14426917733695       -0.93391832381652
H            4.48742435237372       -0.16414869088367        0.16709949888201
H            3.45189294451486       -1.45166530324579        0.80419910579277
20
 energy: -27.122320443204 gnorm: 0.000064299110 xtb: 6.7.1 (edcfbbe)
C           -3.68005709715928       -0.75252918936269        0.05872958204824
C           -2.46797619982194        0.12720074172306        0.33609365329515
C           -1.16986097869472       -0.57098307471821       -0.06039878321843
C            0.03823572341813        0.30115914747498        0.15499111230433
O            0.01561647154174        1.48783428354636        0.40786301541700
O            1.16476116085927       -0.39001469839813        0.02598157377653
C            2.40619211021215        0.31815152805283        0.18608191134795
C            3.54015099125859       -0.67858036898941        0.04614559210703
H           -4.59182008562305       -0.24061004007731        0.35337015865604
H           -3.74512286731362       -0.98956764587665       -1.00018358096835
H           -3.61126479348676       -1.68262460983999        0.61725198852681
H           -2.42710670693721        0.38188854910134        1.39675590656414
H           -2.54903016622405        1.06434637849531       -0.21749294280364
H           -1.19191958825676       -0.83770957840215       -1.11977893232160
H           -1.02807113408857       -1.49391051628376        0.50369153645541
H            2.45707818976161        1.10237642357098       -0.57641160329442
H            2.40507643653660        0.79970602723314        1.16951201325608
H            3.50477100076472       -1.14644798596244       -0.93310478132819
H            4.48763682155506       -0.16343781914956        0.16426995675069
H            3.45317500469446       -1.44960445177467        0.80583283225733
20
 energy: -27.122321174809 gnorm: 0.000101388242 xtb: 6.7.1 (edcfbbe)
C           -3.68054724790268       -0.75140767786181        0.05513430797221
C           -2.46849093072142        0.12722252287641        0.33609257846334
C           -1.16964505171432       -0.57265851100540       -0.05484933547602
C            0.03834804175162        0.29953751974317        0.16100335295021
O            0.01538070517717        1.48479328996291        0.42048563439620
O            1.16510488840213       -0.38977963656896        0.02392850657731
C            2.40648869444122        0.31901111527153        0.18208538913801
C            3.54051463210457       -0.67804273641255        0.04509502524850
H           -4.59290773058501       -0.23788696164900        0.34517807584399
H           -3.74149565385590       -0.98993568381100       -1.00370828364798
H           -3.61526779389841       -1.68076951430305        0.61530739314149
H           -2.43127006128538        0.38314315707287        1.39658660723410
H           -2.54651918477662        1.06384327111893       -0.21885014676903
H           -1.18883086087859       -0.84301256006327       -1.11335987207460
H           -1.02980983051357       -1.49387038693547        0.51260596019011
H            2.45728691793348        1.10062082167655       -0.58311126467012
H            2.40530742263734        0.80387501784105        1.16388251288784
H            3.50241386365596       -1.15184799809756       -0.93122728862765
H            4.48808043613738       -0.16166409065007        0.15720868223738
H            3.45632303688737       -1.44452785784226        0.80971237381281
20
 energy: -27.122321401021 gnorm: 0.000061464786 xtb: 6.7.1 (edcfbbe)
C           -3.68065463425116       -0.75092068421962        0.05337018715757
C           -2.46874048448553        0.12736530080843        0.33605982749387
C           -1.16956018308139       -0.57344976011384       -0.05203906725420
C            0.03836658306518        0.29886085630188        0.16368128855584
O            0.01533734896464        1.48336791172273        0.42646587741779
O            1.16517613239003       -0.38950286255307        0.02241375215065
C            2.40654139512613        0.31936470987324        0.18016047400486
C            3.54065257974042       -0.67778687147280        0.04449092022935
H           -4.59332486931206       -0.23668636654207        0.34110719752701
H           -3.73956422979803       -0.99028787241962       -1.00539250631552
H           -3.61700565263479       -1.67984160269906        0.61444177985311
H           -2.43332586925262        0.38399772255857        1.39643358154234
H           -2.54531198321103        1.06364321029109       -0.21966584668408
H           -1.18744845697808       -0.84607937524189       -1.10995789412108
H           -1.03057463972142       -1.49350124122272        0.51753561681237
H            2.45756951985586        1.10006082438357       -0.58594362007115
H            2.40512199082698        0.80538400338988        1.16137491326864
H            3.50144658067479       -1.15399450773890       -0.93058530223848
H            4.48823825705224       -0.16096041164252        0.15417822739341
H            3.45752490802618       -1.44238988310025        0.81107080210578
20
 energy: -27.122321602327 gnorm: 0.000051782706 xtb: 6.7.1 (edcfbbe)
C           -3.68071537552968       -0.75053191883499        0.05183503443063
C           -2.46898444760289        0.12757474544886        0.33585674861157
C           -1.16945044955872       -0.57412150504530       -0.04938416919936
C            0.03840789815303        0.29836646385493        0.16591762568884
O            0.01535856359271        1.48212107240258        0.43200387926985
O            1.16526899347748       -0.38906229957984        0.02045426215914
C            2.40661534663158        0.31973251223131        0.17850330117863
C            3.54067972363067       -0.67760818997411        0.04376172190193
H           -4.59373941393177       -0.23569255764244        0.33733006731621
H           -3.73771522500633       -0.99096338453370       -1.00678577410509
H           -3.61842137099298       -1.67889579410812        0.61396484411307
H           -2.43530821193529        0.38520268612401        1.39603392869990
H           -2.54428341576570        1.06336151728948       -0.22086083153916
H           -1.18618321392772       -0.84943163492489       -1.10659228155469
H           -1.03120704057996       -1.49279764791577        0.52260441755849
H            2.45812715310047        1.10000715261815       -0.58798018115544
H            2.40474462465482        0.80624266006259        1.15947420056162
H            3.50081413120589       -1.15537917887770       -0.93050213559341
H            4.48827906145724       -0.16052636613835        0.15193737247942
H            3.45817696192352       -1.44095523209367        0.81162817800592
20
 energy: -27.122321653967 gnorm: 0.000071758767 xtb: 6.7.1 (edcfbbe)
C           -3.68077611680821       -0.75014315345035        0.05029988170369
C           -2.46922841072025        0.12778419008929        0.33565366972927
C           -1.16934071603606       -0.57479324997676       -0.04672927114451
C            0.03844921324087        0.29787207140798        0.16815396282184
O            0.01537977822079        1.48087423308243        0.43754188112190
O            1.16536185456492       -0.38862173660662        0.01849477216764
C            2.40668929813702        0.32010031458937        0.17684612835241