      -----------------------------------------------------------      
     |                   =====================                   |     
     |                           x T B                           |     
     |                   =====================                   |     
     |                         S. Grimme                         |     
     |          Mulliken Center for Theoretical Chemistry        |     
     |                    University of Bonn                     |     
      -----------------------------------------------------------      

   * xtb version 6.7.1 (edcfbbe) compiled by 'albert@albert-system' on 2024-07-22

   xtb is free software: you can redistribute it and/or modify it under
   the terms of the GNU Lesser General Public License as published by
   the Free Software Foundation, either version 3 of the License, or
   (at your option) any later version.
   
   xtb is distributed in the hope that it will be useful,
   but WITHOUT ANY WARRANTY; without even the implied warranty of
   MERCHANTABILITY or FITNESS FOR A PARTICULAR PURPOSE.  See the
   GNU Lesser General Public License for more details.
   
   Cite this work as:
   * C. Bannwarth, E. Caldeweyher, S. Ehlert, A. Hansen, P. Pracht,
     J. Seibert, S. Spicher, S. Grimme, WIREs Comput. Mol. Sci., 2020, 11,
     e01493. DOI: 10.1002/wcms.1493
   
   for GFN2-xTB:
   * C. Bannwarth, S. Ehlert and S. Grimme., J. Chem. Theory Comput., 2019,
     15, 1652-1671. DOI: 10.1021/acs.jctc.8b01176
   for GFN1-xTB:
   * S. Grimme, C. Bannwarth, P. Shushkov, J. Chem. Theory Comput., 2017,
     13, 1989-2009. DOI: 10.1021/acs.jctc.7b00118
   for GFN0-xTB:
   * P. Pracht, E. Caldeweyher, S. Ehlert, S. Grimme, ChemRxiv, 2019, preprint.
     DOI: 10.26434/chemrxiv.8326202.v1
   for GFN-FF:
   * S. Spicher and S. Grimme, Angew. Chem. Int. Ed., 2020, 59, 15665-15673.
     DOI: 10.1002/anie.202004239
   
   for ALPB and GBSA implicit solvation:
   * S. Ehlert, M. Stahn, S. Spicher, S. Grimme, J. Chem. Theory Comput.,
     2021, 17, 4250-4261. DOI: 10.1021/acs.jctc.1c00471
   
   for ddCOSMO and CPCM-X implicit solvation:
   * M. Stahn, S. Ehlert, S. Grimme, J. Phys. Chem. A,
     2023, XX, XXXX-XXXX. DOI: 10.1021/acs.jpca.3c04382
   
   for DFT-D4:
   * E. Caldeweyher, C. Bannwarth and S. Grimme, J. Chem. Phys., 2017,
     147, 034112. DOI: 10.1063/1.4993215
   * E. Caldeweyher, S. Ehlert, A. Hansen, H. Neugebauer, S. Spicher,
     C. Bannwarth and S. Grimme, J. Chem. Phys., 2019, 150, 154122.
     DOI: 10.1063/1.5090222
   * E. Caldeweyher, J.-M. Mewes, S. Ehlert and S. Grimme, Phys. Chem. Chem. Phys.
     2020, 22, 8499-8512. DOI: 10.1039/D0CP00502A
   
   for sTDA-xTB:
   * S. Grimme and C. Bannwarth, J. Chem. Phys., 2016, 145, 054103.
     DOI: 10.1063/1.4959605
   
   in the mass-spec context:
   * V. Asgeirsson, C. Bauer and S. Grimme, Chem. Sci., 2017, 8, 4879.
     DOI: 10.1039/c7sc00601b
   * J. Koopman and S. Grimme, ACS Omega 2019, 4, 12, 15120-15133.
     DOI: 10.1021/acsomega.9b02011
   
   for metadynamics refer to:
   * S. Grimme, J. Chem. Theory Comput., 2019, 155, 2847-2862
     DOI: 10.1021/acs.jctc.9b00143
   
   for SPH calculations refer to:
   * S. Spicher and S. Grimme, J. Chem. Theory Comput., 2021, 17, 1701-1714
     DOI: 10.1021/acs.jctc.0c01306
   
   for ONIOM refer to:
   * C. Plett, A. Katbashev, S. Ehlert, S. Grimme, M. Bursch,
     Phys. Chem. Chem. Phys., 2023, 25, 17860-17868. DOI: 10.1039/D3CP02178E
   
   for DIPRO refer to:
   * J. Kohn, N. Gildemeister, S. Grimme, D. Fazzi, A. Hansen,
     J. Chem. Phys., 2023, just accepted.
   
   for PTB refer to:
   * S. Grimme, M. Mueller, A. Hansen, J. Chem. Phys., 2023, 158, 124111.
     DOI: 10.1063/5.0137838
   
   with help from (in alphabetical order)
   P. Atkinson, C. Bannwarth, F. Bohle, G. Brandenburg, E. Caldeweyher
   M. Checinski, S. Dohm, S. Ehlert, S. Ehrlich, I. Gerasimov, C. Hölzer
   A. Katbashev, J. Kohn, J. Koopman, C. Lavigne, S. Lehtola, F. März, M. Müller,
   F. Musil, H. Neugebauer, J. Pisarek, C. Plett, P. Pracht, F. Pultar,
   J. Seibert, P. Shushkov, S. Spicher, M. Stahn, M. Steiner, T. Strunk,
   J. Stückrath, T. Rose, and J. Unsleber
   
 * started run on 2025/04/11 at 12:40:44.469     
   ID    Z sym.   atoms
    1    6 C      1-3, 5-7
    2    7 N      4
    3    1 H      8-22

           -------------------------------------------------
          |                Calculation Setup                |
           -------------------------------------------------

          program call               : /srv/scratch/z5358697/.xtb/bin/xtb xtb_opt.coord --opt normal --orca -I xtb_opt-xcontrol-inp
          hostname                   : k062
          coordinate file            : xtb_opt.coord
          omp threads                :                    12

           -------------------------------------------------
          |                   Orca driver                   |
           -------------------------------------------------
orca executable           : /apps/z_install_tree/linux-rocky8-ivybridge/gcc-12.2.0/orca-6.0.0-srtngmq3qlimg2qxbl6avaaiffipurdx/bin/orca
orca input file           : xtb_opt.inp
orca input line           : 
orca parallel             : true
orca number of threads    : 12
                         * ORCA takes the control...
  ------------------------------------------------------------------------

                                 *****************
                                 * O   R   C   A *
                                 *****************

                                            #,                                       
                                            ###                                      
                                            ####                                     
                                            #####                                    
                                            ######                                   
                                           ########,                                 
                                     ,,################,,,,,                         
                               ,,#################################,,                 
                          ,,##########################################,,             
                       ,#########################################, ''#####,          
                    ,#############################################,,   '####,        
                  ,##################################################,,,,####,       
                ,###########''''           ''''###############################       
              ,#####''   ,,,,##########,,,,          '''####'''          '####       
            ,##' ,,,,###########################,,,                        '##       
           ' ,,###''''                  '''############,,,                           
         ,,##''                                '''############,,,,        ,,,,,,###''
      ,#''                                            '''#######################'''  
     '                                                          ''''####''''         
             ,#######,   #######,   ,#######,      ##                                
            ,#'     '#,  ##    ##  ,#'     '#,    #''#        ,####,   ,####,        
            ##       ##  ##   ,#'  ##            #'  '#       #'       #'  '#        
            ##       ##  #######   ##           ,######,      #####,   #    #        
            '#,     ,#'  ##    ##  '#,     ,#' ,#      #,     #,   #   #,  ,#        
             '#######'   ##     ##  '#######'  #'      '#     '####' # '####'        



                #########################################################
                #                        -***-                          #
                #          Department of theory and spectroscopy        #
                #                                                       #
                #                      Frank Neese                      #
                #                                                       #
                #     Directorship, Architecture, Infrastructure        #
                #                    SHARK, DRIVERS                     #
                #        Core code/Algorithms in most modules           #
                #                                                       #
                #        Max Planck Institute fuer Kohlenforschung      #
                #                Kaiser Wilhelm Platz 1                 #
                #                 D-45470 Muelheim/Ruhr                 #
                #                      Germany                          #
                #                                                       #
                #                  All rights reserved                  #
                #                        -***-                          #
                #########################################################


                         Program Version 6.0.0  -   RELEASE  -


 With contributions from (in alphabetic order):
   Daniel Aravena         : Magnetic Suceptibility
   Michael Atanasov       : Ab Initio Ligand Field Theory (pilot matlab implementation)
   Alexander A. Auer      : GIAO ZORA, VPT2 properties, NMR spectrum
   Ute Becker             : All parallelization in ORCA, NUMFREQ, NUMCALC
   Giovanni Bistoni       : ED, misc. LED, open-shell LED, HFLD
   Martin Brehm           : Molecular dynamics
   Dmytro Bykov           : pre 5.0 version of the SCF Hessian
   Marcos Casanova-Páez   : Triplet and SCS-CIS(D). UHF-(DLPNO)-IP/EA/STEOM-CCSD. UHF-CVS-IP/STEOM-CCSD
   Vijay G. Chilkuri      : MRCI spin determinant printing, contributions to CSF-ICE
   Pauline Colinet        : FMM embedding
   Dipayan Datta          : RHF DLPNO-CCSD density
   Achintya Kumar Dutta   : EOM-CC, STEOM-CC
   Nicolas Foglia         : Exact transition moments, OPA infrastructure, MCD improvements
   Dmitry Ganyushin       : Spin-Orbit,Spin-Spin,Magnetic field MRCI
   Miquel Garcia          : C-PCM and meta-GGA Hessian, CCSD/C-PCM, Gaussian charge scheme
   Tiago L. C. Gouveia    : GS-ROHF, GS-ROCIS
   Yang Guo               : DLPNO-NEVPT2, F12-NEVPT2, CIM, IAO-localization
   Andreas Hansen         : Spin unrestricted coupled pair/coupled cluster methods
   Ingolf Harden          : AUTO-CI MPn and infrastructure 
   Benjamin Helmich-Paris : MC-RPA, TRAH-(SCF,CASSCF), AVAS, COSX integrals, SCF dyn. polar.
   Lee Huntington         : MR-EOM, pCC
   Robert Izsak           : Overlap fitted RIJCOSX, COSX-SCS-MP3, EOM
   Riya Kayal             : Wick's Theorem for AUTO-CI, AUTO-CI UHF-CCSDT
   Emily Kempfer          : AUTO-CI, RHF CISDT and CCSDT
   Christian Kollmar      : KDIIS, OOCD, Brueckner-CCSD(T), CCSD density, CASPT2, CASPT2-K, improved NEVPT2
   Axel Koslowski         : Symmetry handling
   Simone Kossmann        : Meta GGA functionals, TD-DFT gradient, OOMP2, (MP2 Hessian; deprecated post 5.0)
   Lucas Lang             : DCDCAS
   Marvin Lechner         : AUTO-CI (C++ implementation), FIC-MRCC
   Spencer Leger          : CASSCF response
   Dagmar Lenk            : GEPOL surface, SMD, ORCA-2-JSON
   Dimitrios Liakos       : Extrapolation schemes; Compound Job, initial MDCI parallelization
   Dimitrios Manganas     : Further ROCIS development; embedding schemes. LFT, Crystal Embedding
   Dimitrios Pantazis     : SARC Basis sets
   Anastasios Papadopoulos: AUTO-CI, single reference methods and gradients
   Taras Petrenko         : pre 6.0 DFT Hessian and TD-DFT gradient, (ASA, deprecated), ECA, 1-Electron XAS/XES, NRVS
   Peter Pinski           : DLPNO-MP2, DLPNO-MP2 Gradient
   Christoph Reimann      : Effective Core Potentials
   Marius Retegan         : Local ZFS, SOC
   Christoph Riplinger    : Optimizer, TS searches, QM/MM, DLPNO-CCSD(T), (RO)-DLPNO pert. Triples
   Michael Roemelt        : Original ROCIS implementation
   Masaaki Saitow         : Open-shell DLPNO-CCSD energy and density
   Barbara Sandhoefer     : DKH picture change effects
   Kantharuban Sivalingam : CASSCF convergence/infrastructure, NEVPT2 and variants, FIC-MRCI
   Bernardo de Souza      : ESD, SOC TD-DFT
   Georgi Stoychev        : AutoAux, RI-MP2 NMR, DLPNO-MP2 response, X2C
   Van Anh Tran           : RI-MP2 g-tensors
   Willem Van den Heuvel  : Paramagnetic NMR
   Zikuan Wang            : NOTCH, Electric field optimization 
   Frank Wennmohs         : Technical directorship and infrastructure
   Hang Xu                : AUTO-CI-Response properties 


 We gratefully acknowledge several colleagues who have allowed us to
 interface, adapt or use parts of their codes:
   Stefan Grimme, W. Hujo, H. Kruse, P. Pracht,  : VdW corrections, initial TS optimization,
                  C. Bannwarth, S. Ehlert,         DFT functionals, gCP, sTDA/sTD-DF
                  L. Wittmann, M. Mueller
   Ed Valeev, F. Pavosevic, A. Kumar             : LibInt (2-el integral package), F12 methods
   Garnet Chan, S. Sharma, J. Yang, R. Olivares  : DMRG
   Ulf Ekstrom                                   : XCFun DFT Library
   Mihaly Kallay                                 : mrcc  (arbitrary order and MRCC methods)
   Frank Weinhold                                : gennbo (NPA and NBO analysis)
   Simon Mueller                                 : openCOSMO-RS
   Christopher J. Cramer and Donald G. Truhlar   : smd solvation model
   Lars Goerigk                                  : TD-DFT with DH, B97 family of functionals
   V. Asgeirsson, H. Jonsson                     : NEB implementation
   FAccTs GmbH                                   : IRC, NEB, NEB-TS, DLPNO-Multilevel, CI-OPT
                                                   MM, QMMM, 2- and 3-layer-ONIOM, Crystal-QMMM,
                                                   LR-CPCM, SF, NACMEs, symmetry and pop. for TD-DFT,
                                                   nearIR, NL-DFT gradient (VV10), updates on ESD,
                                                   ML-optimized integration grids, MBIS, APM,
                                                   GOAT, DOCKER, SOLVATOR, interface openCOSMO-RS
   S Lehtola, MJT Oliveira, MAL Marques          : LibXC Library
   Liviu Ungur et al                             : ANISO software


 Your calculation uses the libint2 library for the computation of 2-el integrals
 For citations please refer to: http://libint.valeyev.net

 Your ORCA version has been built with support for libXC version: 6.2.2
 For citations please refer to: https://libxc.gitlab.io

 This ORCA versions uses:
   CBLAS   interface :  Fast vector & matrix operations
   LAPACKE interface :  Fast linear algebra routines
   SCALAPACK package :  Parallel linear algebra routines
   Shared memory     :  Shared parallel matrices
   BLAS/LAPACK       :  OpenBLAS 0.3.27  USE64BITINT DYNAMIC_ARCH NO_AFFINITY SkylakeX SINGLE_THREADED
        Core in use  :  SkylakeX
   Copyright (c) 2011-2014, The OpenBLAS Project




***************************************
The coordinates will be read from file: xtb_opt.xyz
***************************************


Your calculation utilizes the geometrical counterpoise correction gCP
Please cite in your paper:
H.Kruse, S. Grimme J.Chem.Phys., 136, (2012), 154101 
   

Your calculation utilizes the atom-pairwise dispersion correction
based on EEQ partial charges (D4)


Your calculation utilizes the SMD solvation module
Please cite in your paper:
A.V. Marenich, C.J. Cramer, D.G. Truhlar J. Phys. Chem. B, 113, (2009), 6378 

================================================================================

----- Orbital basis set information -----
Your calculation utilizes the basis: def2-mTZVPP
   Stefan Grimme, Andreas Hansen, Sebastian Ehlert, and Jan-Michael Mewes 
   J. Chem. Phys. 154, 064103 (2021). DOI: 10.1063/5.0040021

----- AuxJ basis set information -----
Your calculation utilizes the auxiliary basis: def2/J
   F. Weigend, Phys. Chem. Chem. Phys. 8, 1057 (2006).

================================================================================
                                        WARNINGS
                       Please study these warnings very carefully!
================================================================================

WARNING: Old DensityContainer found on disk!
         Will remove this file - 
         If you want to keep old densities, please start your calculation with a different basename. 

Using LibXC functional ID 497 : Re-regularized SCAN exchange by Furness et al
[ 1]  J. W. Furness, A. D. Kaplan, J. Ning, J. P. Perdew, and J. Sun.,  J. Phys. Chem. Lett. 11, 8208-8215 (2020)
[ 2]  J. W. Furness, A. D. Kaplan, J. Ning, J. P. Perdew, and J. Sun.,  J. Phys. Chem. Lett. 11, 9248-9248 (2020)
Using LibXC functional ID 498 : Re-regularized SCAN correlation by Furness et al
[ 1]  J. W. Furness, A. D. Kaplan, J. Ning, J. P. Perdew, and J. Sun.,  J. Phys. Chem. Lett. 11, 8208-8215 (2020)
[ 2]  J. W. Furness, A. D. Kaplan, J. Ning, J. P. Perdew, and J. Sun.,  J. Phys. Chem. Lett. 11, 9248-9248 (2020)
Using LibXC functional ID 497 : Re-regularized SCAN exchange by Furness et al
[ 1]  J. W. Furness, A. D. Kaplan, J. Ning, J. P. Perdew, and J. Sun.,  J. Phys. Chem. Lett. 11, 8208-8215 (2020)
[ 2]  J. W. Furness, A. D. Kaplan, J. Ning, J. P. Perdew, and J. Sun.,  J. Phys. Chem. Lett. 11, 9248-9248 (2020)
Using LibXC functional ID 498 : Re-regularized SCAN correlation by Furness et al
[ 1]  J. W. Furness, A. D. Kaplan, J. Ning, J. P. Perdew, and J. Sun.,  J. Phys. Chem. Lett. 11, 8208-8215 (2020)
[ 2]  J. W. Furness, A. D. Kaplan, J. Ning, J. P. Perdew, and J. Sun.,  J. Phys. Chem. Lett. 11, 9248-9248 (2020)

================================================================================
                                       INPUT FILE
================================================================================
NAME = xtb_opt.inp
|  1> ! r2scan-3c def2/J RI DEFGRID2 scfconv7 ENGRAD tightSCF miniprint
|  2> %cpcm
|  3>     smd true
|  4>     smdsolvent "water"
|  5> end
|  6> * xyzfile 0 1 xtb_opt.xyz
|  7> 
|  8>                          ****END OF INPUT****
================================================================================

                     *******************************
                     * Energy+Gradient Calculation *
                     *******************************

---------------------------------
CARTESIAN COORDINATES (ANGSTROEM)
---------------------------------
  C      2.267874    1.080036    0.196672
  C      1.213283   -0.020869    0.223411
  C      1.757049   -1.283443   -0.446281
  N     -0.024242    0.463437   -0.435995
  C     -1.257462    0.168630    0.318497
  C     -1.597256   -1.317819    0.294254
  C     -2.402080    0.993817   -0.259436
  H      1.929114    1.963717    0.745176
  H      3.204073    0.736141    0.646103
  H      2.481127    1.375926   -0.835944
  H      0.996518   -0.257358    1.277907
  H      2.107931   -1.053517   -1.458374
  H      0.995469   -2.062075   -0.519577
  H      2.599072   -1.685784    0.125907
  H      0.038307    1.477347   -0.472159
  H     -1.132540    0.460431    1.378084
  H     -2.529195   -1.489171    0.841834
  H     -1.728788   -1.672113   -0.733376
  H     -0.819581   -1.920379    0.771841
  H     -3.315420    0.839428    0.321448
  H     -2.605164    0.710188   -1.297454
  H     -2.164930    2.062300   -0.236542

----------------------------
CARTESIAN COORDINATES (A.U.)
----------------------------
  NO LB      ZA    FRAG     MASS         X           Y           Z
   0 C     6.0000    0    12.011    4.285660    2.040971    0.371657
   1 C     6.0000    0    12.011    2.292773   -0.039438    0.422186
   2 C     6.0000    0    12.011    3.320342   -2.425355   -0.843350
   3 N     7.0000    0    14.007   -0.045811    0.875768   -0.823910
   4 C     6.0000    0    12.011   -2.376260    0.318664    0.601871
   5 C     6.0000    0    12.011   -3.018376   -2.490317    0.556059
   6 C     6.0000    0    12.011   -4.539273    1.878042   -0.490263
   7 H     1.0000    0     1.008    3.645496    3.710887    1.408178
   8 H     1.0000    0     1.008    6.054820    1.391105    1.220957
   9 H     1.0000    0     1.008    4.688651    2.600124   -1.579705
  10 H     1.0000    0     1.008    1.883145   -0.486336    2.414894
  11 H     1.0000    0     1.008    3.983412   -1.990859   -2.755928
  12 H     1.0000    0     1.008    1.881164   -3.896758   -0.981858
  13 H     1.0000    0     1.008    4.911534   -3.185670    0.237930
  14 H     1.0000    0     1.008    0.072389    2.791782   -0.892252
  15 H     1.0000    0     1.008   -2.140191    0.870088    2.604201
  16 H     1.0000    0     1.008   -4.779486   -2.814126    1.590836
  17 H     1.0000    0     1.008   -3.266937   -3.159836   -1.385879
  18 H     1.0000    0     1.008   -1.548784   -3.628991    1.458567
  19 H     1.0000    0     1.008   -6.265236    1.586288    0.607449
  20 H     1.0000    0     1.008   -4.923046    1.342060   -2.451833
  21 H     1.0000    0     1.008   -4.091125    3.897183   -0.446999

------------------------------------------------------------------------------
                   ___                                                        
                  /   \      - P O W E R E D   B Y -                         
                 /     \                                                     
                 |  |  |   _    _      __       _____    __    __             
                 |  |  |  | |  | |    /  \     |  _  \  |  |  /  |          
                  \  \/   | |  | |   /    \    | | | |  |  | /  /          
                 / \  \   | |__| |  /  /\  \   | |_| |  |  |/  /          
                |  |  |   |  __  | /  /__\  \  |    /   |      \           
                |  |  |   | |  | | |   __   |  |    \   |  |\   \          
                \     /   | |  | | |  |  |  |  | |\  \  |  | \   \       
                 \___/    |_|  |_| |__|  |__|  |_| \__\ |__|  \__/        
                                                                              
                      - O R C A' S   B I G   F R I E N D -                    
                                      &                                       
                       - I N T E G R A L  F E E D E R -                       
                                                                              
 v1 FN, 2020, v2 2021, v3 2022-2024                                           
------------------------------------------------------------------------------


----------------------
SHARK INTEGRAL PACKAGE
----------------------

Number of atoms                             ...     22
Number of basis functions                   ...    213
Number of shells                            ...    109
Maximum angular momentum                    ...      2
Integral batch strategy                     ... SHARK/LIBINT Hybrid
RI-J (if used) integral strategy            ... SPLIT-RIJ (Revised 2003 algorithm where possible)
Printlevel                                  ...      1
Contraction scheme used                     ... SEGMENTED contraction
Prescreening option                         ... SCHWARTZ
   Thresh                                   ... 3.000e-11
   Tcut                                     ... 1.000e-12
   Tpresel                                  ... 1.000e-12 
Coulomb Range Separation                    ... NOT USED
Exchange Range Separation                   ... NOT USED
Multipole approximations                    ... NOT USED
Finite Nucleus Model                        ... NOT USED
CABS basis                                  ... NOT available
Auxiliary Coulomb fitting basis             ... AVAILABLE
   # of basis functions in Aux-J            ...    508
   # of shells in Aux-J                     ...    180
   Maximum angular momentum in Aux-J        ...      4
Auxiliary J/K fitting basis                 ... NOT available
Auxiliary Correlation fitting basis         ... NOT available
Auxiliary 'external' fitting basis          ... NOT available

Checking pre-screening integrals            ... done (  0.0 sec) Dimension = 109
Check shell pair data                       ... done (  0.0 sec)
Shell pair information
Shell pair cut-off parameter TPreSel        ...   1.0e-12
Total number of shell pairs                 ...      5995
Shell pairs after pre-screening             ...      5501
Total number of primitive shell pairs       ...     20702
Primitive shell pairs kept                  ...     13823
          la=0 lb=0:   1961 shell pairs
          la=1 lb=0:   2140 shell pairs
          la=1 lb=1:    606 shell pairs
          la=2 lb=0:    486 shell pairs
          la=2 lb=1:    272 shell pairs
          la=2 lb=2:     36 shell pairs

Calculating one electron integrals          ... done (  0.0 sec)
Calculating RI/J V-Matrix + Cholesky decomp.... done (  0.1 sec)
Calculating Nuclear repulsion               ... done (  0.0 sec) ENN=    335.332250944858 Eh

Diagonalization of the overlap matrix:
Smallest eigenvalue                        ... 2.140e-04
Time for diagonalization                   ...    0.011 sec
Threshold for overlap eigenvalues          ... 1.000e-07
Number of eigenvalues below threshold      ... 0
Time for construction of square roots      ...    0.016 sec
Total time needed                          ...    0.036 sec

-------------------
DFT GRID GENERATION
-------------------

General Integration Accuracy     IntAcc      ... 4.388
Radial Grid Type                 RadialGrid  ... OptM3 with GC (2021)
Angular Grid (max. ang.)         AngularGrid ... 4 (Lebedev-302)
Angular grid pruning method      GridPruning ... 4 (adaptive)
Weight generation scheme         WeightScheme... mBecke (2022)
Basis function cutoff            BFCut       ... 1.0000e-11
Integration weight cutoff        WCut        ... 1.0000e-14
Partially contracted basis set               ... off
Rotationally invariant grid construction     ... off
Angular grids for H and He will be reduced by one unit

Total number of grid points                  ...    89907
Total number of batches                      ...     1417
Average number of points per batch           ...       63
Average number of grid points per atom       ...     4087
Initializing property integral containers    ... done (  0.0 sec)

SHARK setup successfully completed in   1.2 seconds

Maximum memory used throughout the entire STARTUP-calculation: 38.8 MB
Occupation numbers will be reassigned to an Aufbau configuration
             **** ENERGY FILE WAS UPDATED (xtb_opt.en.tmp) ****
Finished Guess after   0.3 sec
Maximum memory used throughout the entire GUESS-calculation: 14.8 MB
--------------------
CPCM SOLVATION MODEL
--------------------
CPCM parameters:
  Epsilon                                         ...      78.3550
  Refrac                                          ...       1.3328
  Rsolv                                           ...       1.3000
  Surface type                                    ... GAUSSIAN VDW
  Discretization scheme                           ... Constant charge density
    Threshold for H atoms                         ...       5.0000 (charges/Ang^2)
    Threshold for non-H atoms                     ...       5.0000 (charges/Ang^2)
  Epsilon function type                           ...         CPCM
Solvent:                                          ... WATER
SMD-CDS solvent descriptors:
  Soln                                            ...       1.3328
  Soln25                                          ...       1.3323
  Sola                                            ...       0.0000
  Solb                                            ...       0.0000
  Solg                                            ...       0.0000
  Solc                                            ...       0.0000
  Solh                                            ...       0.0000
Radii:
  Scheme                                          ... Element-dependent radii
  Radius for C  used is    3.4960 Bohr (=   1.8500 Ang.)
  Radius for N  used is    3.5716 Bohr (=   1.8900 Ang.)
  Radius for H  used is    2.2677 Bohr (=   1.2000 Ang.)
Calculating surface                               ...        done! (  0.0s)
Cavity surface points                             ...         1595
Cavity Volume                                     ...     902.0709
Cavity Surface-area                               ...     581.1655
Calculating surface distance matrix               ...        done! (  0.0s)
Performing Cholesky decomposition & store         ...        done! (  0.1s)
Overall time for CPCM initialization              ...                 0.1s

----------------------------------------D-I-I-S--------------------------------------------
Iteration    Energy (Eh)           Delta-E    RMSDP     MaxDP     DIISErr   Damp  Time(sec)
-------------------------------------------------------------------------------------------
               ***  Starting incremental Fock matrix formation  ***
                              *** Initializing SOSCF ***
---------------------------------------S-O-S-C-F--------------------------------------
Iteration    Energy (Eh)           Delta-E    RMSDP     MaxDP     MaxGrad    Time(sec)
--------------------------------------------------------------------------------------
    1    -292.3346521031984366     0.00e+00  1.45e-07  3.89e-06  4.26e-07     3.0
               *** Restarting incremental Fock matrix formation ***
    2    -292.3346521032460714    -4.76e-11  1.55e-07  4.15e-06  1.05e-06     2.9
                  *** Gradient check signals convergence ***

               *****************************************************
               *                     SUCCESS                       *
               *           SCF CONVERGED AFTER   2 CYCLES          *
               *****************************************************


SMD CDS free energy correction energy :                 2.04494     Kcal/mol
Total Energy after SMD CDS correction =              -292.331393283 Eh
             **** ENERGY FILE WAS UPDATED (xtb_opt.en.tmp) ****

----------------
TOTAL SCF ENERGY
----------------

Total Energy       :       -292.33139328282522 Eh           -7954.74162 eV

Components:
Nuclear Repulsion  :        335.33225094485772 Eh            9124.85445 eV
Electronic Energy  :       -627.65818747724131 Eh          -17079.44758 eV
One Electron Energy:      -1057.60532028110947 Eh          -28778.90386 eV
Two Electron Energy:        429.94713280386816 Eh           11699.45627 eV
CPCM Dielectric    :         -0.00871557086247 Eh              -0.23716 eV
SMD CDS (Gcds)     :          0.00325882042087 Eh               0.08868 eV

Virial components:
Potential Energy   :       -583.13656889572542 Eh          -15867.95275 eV
Kinetic Energy     :        290.80517561290020 Eh            7913.21113 eV
Virial Ratio       :          2.00524824796088

DFT components:
N(Alpha)           :       29.000068994192 electrons
N(Beta)            :       29.000068994192 electrons
N(Total)           :       58.000137988384 electrons
E(X)               :      -43.177524549091 Eh       
E(C)               :       -1.796719142138 Eh       
E(XC)              :      -44.974243691230 Eh       

CPCM Solvation Model Properties:
Surface-charge          :         -0.05010811545149
Corrected charge        :         -0.00000000000000
Outlying charge corr.   :          0.00019218179214 Eh               0.00523 eV
Free-energy (cav+disp)  :          0.00325882042087 Eh               0.08868 eV

---------------
SCF CONVERGENCE
---------------

  Last Energy change         ...    4.7635e-11  Tolerance :   1.0000e-07
  Last MAX-Density change    ...    4.1537e-06  Tolerance :   1.0000e-07
  Last RMS-Density change    ...    1.5539e-07  Tolerance :   5.0000e-09
  Last DIIS Error            ...    5.0442e-06  Tolerance :   1.0000e-07
  Last Orbital Gradient      ...    1.0519e-06  Tolerance :   1.0000e-04
  Last Orbital Rotation      ...    1.7903e-06  Tolerance :   1.0000e-04


----------------
ORBITAL ENERGIES
----------------

  NO   OCC          E(Eh)            E(eV) 
   0   2.0000     -14.134044      -384.6069 
   1   2.0000     -10.051596      -273.5178 
   2   2.0000     -10.050904      -273.4990 
   3   2.0000     -10.011372      -272.4233 
   4   2.0000     -10.010440      -272.3979 
   5   2.0000     -10.008408      -272.3426 
   6   2.0000     -10.006576      -272.2928 
   7   2.0000      -0.863032       -23.4843 
   8   2.0000      -0.745323       -20.2813 
   9   2.0000      -0.690334       -18.7850 
  10   2.0000      -0.646939       -17.6041 
  11   2.0000      -0.638943       -17.3865 
  12   2.0000      -0.540039       -14.6952 
  13   2.0000      -0.525788       -14.3074 
  14   2.0000      -0.443012       -12.0550 
  15   2.0000      -0.431527       -11.7424 
  16   2.0000      -0.418060       -11.3760 
  17   2.0000      -0.390413       -10.6237 
  18   2.0000      -0.364152        -9.9091 
  19   2.0000      -0.356951        -9.7131 
  20   2.0000      -0.347892        -9.4666 
  21   2.0000      -0.341634        -9.2963 
  22   2.0000      -0.334009        -9.0889 
  23   2.0000      -0.316977        -8.6254 
  24   2.0000      -0.310861        -8.4590 
  25   2.0000      -0.295378        -8.0376 
  26   2.0000      -0.292394        -7.9564 
  27   2.0000      -0.280542        -7.6339 
  28   2.0000      -0.195004        -5.3063 
  29   0.0000       0.082819         2.2536 
  30   0.0000       0.115176         3.1341 
  31   0.0000       0.119216         3.2440 
  32   0.0000       0.124747         3.3945 
  33   0.0000       0.135493         3.6869 
  34   0.0000       0.142455         3.8764 
  35   0.0000       0.147096         4.0027 
  36   0.0000       0.149780         4.0757 
  37   0.0000       0.156983         4.2717 
  38   0.0000       0.162871         4.4320 
  39   0.0000       0.174232         4.7411 
*Only the first 10 virtual orbitals were printed.
Total SCF time: 0 days 0 hours 0 min 6 sec 
Finished LeanSCF after   6.7 sec

Maximum memory used throughout the entire LEANSCF-calculation: 32.4 MB


-------------------------------------------------------------------------------
                          DFT DISPERSION CORRECTION                            
                                                                               
                                DFTD4 V3.4.0                                   
-------------------------------------------------------------------------------
-------------------------   ----------------
Dispersion correction           -0.005955801
-------------------------   ----------------

------------------   -----------------
gCP correction             0.014271890
------------------   -----------------

-------------------------   --------------------
FINAL SINGLE POINT ENERGY      -292.323077193880
-------------------------   --------------------

------------------------------------------------------------------------------
                         ORCA SCF GRADIENT CALCULATION
------------------------------------------------------------------------------

Nuc. rep. gradient        (SHARK) ... done (  0.0 sec)
HCore & Overlap gradient  (SHARK) ... done (  0.3 sec)
Split-RIJ-J gradient      (SHARK) ... done (  1.3 sec)
XC gradient                       ... done (  5.5 sec)
CPCM gradient                     ... done (  0.9 sec)
SMD gradient                      ... done (  0.0 sec)
Dispersion correction             ... done (  0.0 sec)

-------------------
DISPERSION GRADIENT
-------------------

   1   C   :    0.000093908    0.000054118    0.000008397
   2   C   :    0.000071758   -0.000000082    0.000014562
   3   C   :    0.000085463   -0.000065168   -0.000024132
   4   N   :   -0.000000544    0.000044968   -0.000018216
   5   C   :   -0.000075828    0.000008537    0.000020953
   6   C   :   -0.000077465   -0.000068701    0.000019395
   7   C   :   -0.000096482    0.000048159   -0.000013766
   8   H   :    0.000036412    0.000032985    0.000010645
   9   H   :    0.000033594    0.000015724    0.000008249
  10   H   :    0.000032655    0.000022278   -0.000006223
  11   H   :    0.000027582   -0.000000271    0.000012933
  12   H   :    0.000033609   -0.000020852   -0.000022378
  13   H   :    0.000026582   -0.000038425   -0.000013342
  14   H   :    0.000035533   -0.000028101   -0.000003233
  15   H   :    0.000000659    0.000017601   -0.000008858
  16   H   :   -0.000031695    0.000006991    0.000016804
  17   H   :   -0.000033250   -0.000026110    0.000012683
  18   H   :   -0.000034051   -0.000029678   -0.000006449
  19   H   :   -0.000025048   -0.000037261    0.000014275
  20   H   :   -0.000033537    0.000015614    0.000000225
  21   H   :   -0.000034261    0.000016831   -0.000015437
  22   H   :   -0.000035594    0.000030842   -0.000007088

Difference to translation invariance:
           :    0.0000000000   -0.0000000000    0.0000000000

Difference to rotation invariance:
           :    0.0000000000    0.0000000000    0.0000000000

Norm of the Dispersion gradient    ...    0.0002951924
RMS gradient                       ...    0.0000363357
MAX gradient                       ...    0.0000964824
gCP correction                   ... done

------------------
CARTESIAN GRADIENT
------------------

   1   C   :    0.000140718    0.000750430   -0.000203010
   2   C   :   -0.001395359    0.000848178    0.000022369
   3   C   :    0.000544236   -0.001328937   -0.000131715
   4   N   :   -0.000345224   -0.000931387    0.001245603
   5   C   :    0.002145226    0.000659560   -0.000249420
   6   C   :   -0.000629978   -0.000906795   -0.000954047
   7   C   :   -0.000939122    0.000567421   -0.000104970
   8   H   :    0.000211896   -0.000980432   -0.000690393
   9   H   :   -0.000157297    0.000278767   -0.000262900
  10   H   :   -0.000371142   -0.000425021    0.000981478
  11   H   :    0.000239342    0.000093984   -0.000573457
  12   H   :   -0.000103360    0.000215456    0.000435481
  13   H   :    0.000594444    0.000736804    0.000227591
  14   H   :   -0.000683746    0.000071770   -0.000135631
  15   H   :   -0.000119278    0.000249469   -0.000058778
  16   H   :   -0.000179387   -0.000343659   -0.000440123
  17   H   :    0.000464535    0.000359917   -0.000002704
  18   H   :    0.000176340    0.000215049    0.000765453
  19   H   :    0.000000517    0.000204944   -0.000119075
  20   H   :    0.000439932    0.000203701   -0.000345240
  21   H   :    0.000066275    0.000358582    0.000535603
  22   H   :   -0.000099570   -0.000897804    0.000057884

Difference to translation invariance:
           :    0.0000000000   -0.0000000000    0.0000000000

Difference to rotation invariance:
           :   -0.0002529638    0.0003135126    0.0001189234

Norm of the Cartesian gradient     ...    0.0049448305
RMS gradient                       ...    0.0006086666
MAX gradient                       ...    0.0021452260

-------
TIMINGS
-------

Total SCF gradient time     ....        8.792 sec

Densities                   ....       0.001 sec  (  0.0%)
One electron gradient       ....       0.289 sec  (  3.3%)
RI-J Coulomb gradient       ....       1.348 sec  ( 15.3%)
XC gradient                 ....       5.499 sec  ( 62.6%)
CPCM gradient               ....       0.867 sec  (  9.9%)
   A-Matrix (El+Nuc)        ....       0.078 sec  (  0.9%)
   Potential                ....       0.789 sec  (  9.0%)
SMD gradient                ....       0.015 sec  (  0.2%)

Maximum memory used throughout the entire SCFGRAD-calculation: 35.0 MB

------------------------------------------------------------------------------
                              ORCA PROPERTY CALCULATIONS
------------------------------------------------------------------------------

GBWName                                 ... xtb_opt.gbw
Number of atoms                         ...     22
Number of basis functions               ...    213
Max core memory                         ...   1024 MB

Electric properties:
Dipole moment                           ... YES
Quadrupole moment                       ...  NO
Static polarizability (Dipole/Dipole)   ...  NO
Static polarizability (Dipole/Quad.)    ...  NO
Static polarizability (Quad./Quad.)     ...  NO
Static polarizability (Velocity)        ...  NO

Atomic electric properties:
Dipole moment                           ...  NO
Quadrupole moment                       ...  NO
Static polarizability                   ...  NO

Choice of electric origin               ... Center of mass
Position of electric origin             ...    -0.009457     0.026375    -0.030228

General magnetic properties:
Magnetizability                         ...  NO

EPR properties:
g-Tensor (aka g-matrix)                 ...  NO
Zero-Field splitting spin-orbit         ...  NO
Zero-field splitting spin-spin          ...  NO
Hyperfine couplings                     ...  NO (   0 nuclei)
Quadrupole couplings                    ...  NO (   0 nuclei)
Contact density                         ...  NO (   0 nuclei)

NMR properties:
Chemical shifts                         ...  NO (   0 nuclei)
Spin-rotation constants                 ...  NO (   0 nuclei)
Spin-spin couplings                     ...  NO (   0 nuclei,    0 pairs)

Choice of magnetic origin               ... GIAO
Position of magnetic origin             ...     0.000000     0.000000     0.000000

Properties with geometric perturbations:
SCF Hessian                             ...  NO
IR spectrum                             ...  NO
VCD spectrum                            ...  NO
X-ray spectroscopy properties:
SCF XES/XAS/RIXS spectra                ...  NO


-------------
DIPOLE MOMENT
-------------

Method             : SCF
Type of density    : Electron Density
Multiplicity       :   1
Irrep              :   0
Energy             :  -292.3313932828252177 Eh
Relativity type    : 
Basis              : AO
                                X                 Y                 Z
Electronic contribution:     -0.083112865       1.010078720      -0.098240583
Nuclear contribution   :      0.122849860      -0.677022728       0.743360819
                        -----------------------------------------
Total Dipole Moment    :      0.039736995       0.333055992       0.645120235
                        -----------------------------------------
Magnitude (a.u.)       :      0.727107585
Magnitude (Debye)      :      1.848160606



--------------------
Rotational spectrum 
--------------------
 
Rotational constants in cm-1:             0.138386             0.052024             0.041681 
Rotational constants in MHz :          4148.707403          1559.641068          1249.563123 

Dipole components along the rotational axes: 
x,y,z [a.u.] :     0.021788    -0.329863     0.647612 
x,y,z [Debye]:     0.055381    -0.838444     1.646099 

 

Dipole moment calculation done in   0.0 sec 

Maximum memory used throughout the entire PROP-calculation: 13.5 MB

--------------------------------
SUGGESTED CITATIONS FOR THIS RUN
--------------------------------

Below you find a list of papers that are relevant to this ORCA run
We neither can nor want to force you to cite these papers, but we appreciate if you do
You receive ORCA, which is the product of decades of hard work by many enthusiastic individuals, for free
The only thing we kindly ask in return is that you cite our papers,
We deeply appreciate it, if you show your appreciation for ORCA by not just citing the generic ORCA reference.

Please note that relegating all ORCA citations to the supporting information does *not* help us.
SI sections are not indexed - citations you put there will not count into any citation statistics
But we need these citations in order to attract the funding resources that allow us to do what we are doing

Therefore, if you are a happy ORCA user, please consider citing a few of the papers listed below in the main body of your paper

In addition to the list printed below, the program has created the file xtb_opt.bibtex that contains the list in bibtex format
You can import this file easily into all common literature databanks and citation aid programs


List of essential papers. We consider these as the minimum necessary citations

  1. Neese,F.
     Software update: the ORCA program system, version 5.0
     WIRES Comput. Molec. Sci., 2022 12(1)e1606
     doi.org/10.1002/wcms.1606
  2. Grimme,S.; Hansen,A.; Ehlert,S.; Mewes,J.
     r2SCAN-3c: A 'Swiss army knife' composite electronic-structure method
     J. Chem. Phys., 2021 154 064103
     doi.org/10.1063/5.0040021

List of papers to cite with high priority. The work reported in these papers was absolutely
necessary for this run to complete.
Our perspective: the developers of density functionals and basis sets usually get cited in chemistry papers
Good! But without the algorithms to do something with them, the functionals or basis sets would not do anything.
Hence, in our opinion, the algorithm design and method developments papers are equally worthy of getting cited

  1. Neese,F.
     An improvement of the resolution of the identity approximation for the formation of the Coulomb matrix
     J. Comp. Chem., 2003 24(14)1740-1747
     doi.org/10.1002/jcc.10318
  2. Garcia-Rates,M.; Neese,F.
     Effect of the Solute Cavity on the Solvation Energy and its Derivatives within the Framework of the Gaussian Charge Scheme
     J. Comput. Chem., 2020 41 922-939
     doi.org/10.1002/jcc.26139
  3. Neese,F.
     The SHARK Integral Generation and Digestion System
     J. Comp. Chem., 2022  1-16
     doi.org/10.1002/jcc.26942
  4. Lehtola,S.; Steigemann,C.; Oliveira,M.; Marques,M.
     Recent developments in Libxc - A comprehensive library of functionals for density functional theory
     Software X, 2018 7 
     doi.org/10.1016/j.softx.2017.11.002
  5. Caldeweyher,E.; Bannwarth,C.; Grimme,S.
     Extension of the D3 dispersion coefficient model
     J. Chem. Phys., 2017 147 034112-XXXX
     doi.org/10.1063/1.4993215
  6. Caldeweyher,E.; Ehlert,S.; Hansen,A.; Neugebauer,H.; Spicher,S.; Bannwarth,C.; Grimme,S.
     A generally applicable atomic-charge dependent London dispersion correction
     J. Chem. Phys., 2019 150 154122-XXXX
     doi.org/10.1063/1.5090222
  7. Caldeweyher,E.; Mewes,J.; Ehlert,S.; Grimme,S.
     Extension and evaluation of the D4 London-dispersion model for periodic systems
     Phys. Chem. Chem. Phys., 2020 22(16)8499-8512
     doi.org/10.1039/D0CP00502A

List of suggested additional citations. These are papers that are important in the 'surrounding' of 
of this run, or papers that preceded the highly important papers. If you like your results we are grateful for a citation.

  1. Neese,F.
     The ORCA program system
     WIRES Comput. Molec. Sci., 2012 2(1)73-78
     doi.org/10.1002/wcms.81
  2. Neese,F.
     Software update: the ORCA program system, version 4.0
     WIRES Comput. Molec. Sci., 2018 8(1)1-6
     doi.org/10.1002/wcms.1327
  3. Neese,F.; Wennmohs,F.; Becker,U.; Riplinger,C.
     The ORCA quantum chemistry program package
     J. Chem. Phys., 2020 152 Art. No. L224108
     doi.org/10.1063/5.0004608

List of optional additional citations

  1. Neese,F.
     Approximate second-order SCF convergence for spin unrestricted wavefunctions
     Chem. Phys. Lett., 2000 325(1-3)93-98
     doi.org/10.1016/s0009-2614(00)00662-x

Timings for individual modules:

Sum of individual times          ...       17.427 sec (=   0.290 min)
Startup calculation              ...        1.311 sec (=   0.022 min)   7.5 %
SCF iterations                   ...        7.092 sec (=   0.118 min)  40.7 %
Property calculations            ...        0.119 sec (=   0.002 min)   0.7 %
SCF Gradient evaluation          ...        8.905 sec (=   0.148 min)  51.1 %
                             ****ORCA TERMINATED NORMALLY****
TOTAL RUN TIME: 0 days 0 hours 0 minutes 18 seconds 357 msec
  ------------------------------------------------------------------------
          * successful ORCA run, taking over control again...

         :::::::::::::::::::::::::::::::::::::::::::::::::::::
         ::                  ORCA SUMMARY                   ::
         :::::::::::::::::::::::::::::::::::::::::::::::::::::
         :: total energy            -292.323077193880 Eh    ::
         :: gradient norm              0.004944830492 Eh/a0 ::
         :: HOMO-LUMO gap              0.000000000000 eV    ::
         :::::::::::::::::::::::::::::::::::::::::::::::::::::

      ----------------------------------------------------------- 
     |                       L-ANC optimizer                     |
      ----------------------------------------------------------- 
          low memory version by Sebastian Ehlert

          ...................................................
          :                      SETUP                      :
          :.................................................:
          :   energy convergence        0.5000000E-05 Eh    :
          :   grad. convergence         0.1000000E-02 Eh/a0 :
          :   optimization log               true           :
          :   writing optlog all                1     steps :
          :   Hessian reset                     8     steps :
          :   maximium step len.        1.0000000     a0    :
          :   LBFGS images                      8           :
          ...................................................
 * calculating model hessian...
Using Lindh-Hessian (1995)
 Shifting diagonal of input Hessian by   1.000000000000000E-002
 Lowest  eigenvalues of input Hessian
    0.000000    0.000000    0.000000    0.000000    0.000000    0.000000
    0.011476    0.013125    0.015200    0.018635    0.019643    0.019835
    0.020340    0.020743    0.023416    0.024436    0.033904    0.035990
 Highest eigenvalues
    1.175838    1.193288    1.241825    1.258852    1.342630    1.413950
 

........................................................................
.............................. CYCLE    1 ..............................
........................................................................
                         * ORCA takes the control...
  ------------------------------------------------------------------------

                                 *****************
                                 * O   R   C   A *
                                 *****************

                                            #,                                       
                                            ###                                      
                                            ####                                     
                                            #####                                    
                                            ######                                   
                                           ########,                                 
                                     ,,################,,,,,                         
                               ,,#################################,,                 
                          ,,##########################################,,             
                       ,#########################################, ''#####,          
                    ,#############################################,,   '####,        
                  ,##################################################,,,,####,       
                ,###########''''           ''''###############################       
              ,#####''   ,,,,##########,,,,          '''####'''          '####       
            ,##' ,,,,###########################,,,                        '##       
           ' ,,###''''                  '''############,,,                           
         ,,##''                                '''############,,,,        ,,,,,,###''
      ,#''                                            '''#######################'''  
     '                                                          ''''####''''         
             ,#######,   #######,   ,#######,      ##                                
            ,#'     '#,  ##    ##  ,#'     '#,    #''#        ,####,   ,####,        
            ##       ##  ##   ,#'  ##            #'  '#       #'       #'  '#        
            ##       ##  #######   ##           ,######,      #####,   #    #        
            '#,     ,#'  ##    ##  '#,     ,#' ,#      #,     #,   #   #,  ,#        
             '#######'   ##     ##  '#######'  #'      '#     '####' # '####'        



                #########################################################
                #                        -***-                          #
                #          Department of theory and spectroscopy        #
                #                                                       #
                #                      Frank Neese                      #
                #                                                       #
                #     Directorship, Architecture, Infrastructure        #
                #                    SHARK, DRIVERS                     #
                #        Core code/Algorithms in most modules           #
                #                                                       #
                #        Max Planck Institute fuer Kohlenforschung      #
                #                Kaiser Wilhelm Platz 1                 #
                #                 D-45470 Muelheim/Ruhr                 #
                #                      Germany                          #
                #                                                       #
                #                  All rights reserved                  #
                #                        -***-                          #
                #########################################################


                         Program Version 6.0.0  -   RELEASE  -


 With contributions from (in alphabetic order):
   Daniel Aravena         : Magnetic Suceptibility
   Michael Atanasov       : Ab Initio Ligand Field Theory (pilot matlab implementation)
   Alexander A. Auer      : GIAO ZORA, VPT2 properties, NMR spectrum
   Ute Becker             : All parallelization in ORCA, NUMFREQ, NUMCALC
   Giovanni Bistoni       : ED, misc. LED, open-shell LED, HFLD
   Martin Brehm           : Molecular dynamics
   Dmytro Bykov           : pre 5.0 version of the SCF Hessian
   Marcos Casanova-Páez   : Triplet and SCS-CIS(D). UHF-(DLPNO)-IP/EA/STEOM-CCSD. UHF-CVS-IP/STEOM-CCSD
   Vijay G. Chilkuri      : MRCI spin determinant printing, contributions to CSF-ICE
   Pauline Colinet        : FMM embedding
   Dipayan Datta          : RHF DLPNO-CCSD density
   Achintya Kumar Dutta   : EOM-CC, STEOM-CC
   Nicolas Foglia         : Exact transition moments, OPA infrastructure, MCD improvements
   Dmitry Ganyushin       : Spin-Orbit,Spin-Spin,Magnetic field MRCI
   Miquel Garcia          : C-PCM and meta-GGA Hessian, CCSD/C-PCM, Gaussian charge scheme
   Tiago L. C. Gouveia    : GS-ROHF, GS-ROCIS
   Yang Guo               : DLPNO-NEVPT2, F12-NEVPT2, CIM, IAO-localization
   Andreas Hansen         : Spin unrestricted coupled pair/coupled cluster methods
   Ingolf Harden          : AUTO-CI MPn and infrastructure 
   Benjamin Helmich-Paris : MC-RPA, TRAH-(SCF,CASSCF), AVAS, COSX integrals, SCF dyn. polar.
   Lee Huntington         : MR-EOM, pCC
   Robert Izsak           : Overlap fitted RIJCOSX, COSX-SCS-MP3, EOM
   Riya Kayal             : Wick's Theorem for AUTO-CI, AUTO-CI UHF-CCSDT
   Emily Kempfer          : AUTO-CI, RHF CISDT and CCSDT
   Christian Kollmar      : KDIIS, OOCD, Brueckner-CCSD(T), CCSD density, CASPT2, CASPT2-K, improved NEVPT2
   Axel Koslowski         : Symmetry handling
   Simone Kossmann        : Meta GGA functionals, TD-DFT gradient, OOMP2, (MP2 Hessian; deprecated post 5.0)
   Lucas Lang             : DCDCAS
   Marvin Lechner         : AUTO-CI (C++ implementation), FIC-MRCC
   Spencer Leger          : CASSCF response
   Dagmar Lenk            : GEPOL surface, SMD, ORCA-2-JSON
   Dimitrios Liakos       : Extrapolation schemes; Compound Job, initial MDCI parallelization
   Dimitrios Manganas     : Further ROCIS development; embedding schemes. LFT, Crystal Embedding
   Dimitrios Pantazis     : SARC Basis sets
   Anastasios Papadopoulos: AUTO-CI, single reference methods and gradients
   Taras Petrenko         : pre 6.0 DFT Hessian and TD-DFT gradient, (ASA, deprecated), ECA, 1-Electron XAS/XES, NRVS
   Peter Pinski           : DLPNO-MP2, DLPNO-MP2 Gradient
   Christoph Reimann      : Effective Core Potentials
   Marius Retegan         : Local ZFS, SOC
   Christoph Riplinger    : Optimizer, TS searches, QM/MM, DLPNO-CCSD(T), (RO)-DLPNO pert. Triples
   Michael Roemelt        : Original ROCIS implementation
   Masaaki Saitow         : Open-shell DLPNO-CCSD energy and density
   Barbara Sandhoefer     : DKH picture change effects
   Kantharuban Sivalingam : CASSCF convergence/infrastructure, NEVPT2 and variants, FIC-MRCI
   Bernardo de Souza      : ESD, SOC TD-DFT
   Georgi Stoychev        : AutoAux, RI-MP2 NMR, DLPNO-MP2 response, X2C
   Van Anh Tran           : RI-MP2 g-tensors
   Willem Van den Heuvel  : Paramagnetic NMR
   Zikuan Wang            : NOTCH, Electric field optimization 
   Frank Wennmohs         : Technical directorship and infrastructure
   Hang Xu                : AUTO-CI-Response properties 


 We gratefully acknowledge several colleagues who have allowed us to
 interface, adapt or use parts of their codes:
   Stefan Grimme, W. Hujo, H. Kruse, P. Pracht,  : VdW corrections, initial TS optimization,
                  C. Bannwarth, S. Ehlert,         DFT functionals, gCP, sTDA/sTD-DF
                  L. Wittmann, M. Mueller
   Ed Valeev, F. Pavosevic, A. Kumar             : LibInt (2-el integral package), F12 methods
   Garnet Chan, S. Sharma, J. Yang, R. Olivares  : DMRG
   Ulf Ekstrom                                   : XCFun DFT Library
   Mihaly Kallay                                 : mrcc  (arbitrary order and MRCC methods)
   Frank Weinhold                                : gennbo (NPA and NBO analysis)
   Simon Mueller                                 : openCOSMO-RS
   Christopher J. Cramer and Donald G. Truhlar   : smd solvation model
   Lars Goerigk                                  : TD-DFT with DH, B97 family of functionals
   V. Asgeirsson, H. Jonsson                     : NEB implementation
   FAccTs GmbH                                   : IRC, NEB, NEB-TS, DLPNO-Multilevel, CI-OPT
                                                   MM, QMMM, 2- and 3-layer-ONIOM, Crystal-QMMM,
                                                   LR-CPCM, SF, NACMEs, symmetry and pop. for TD-DFT,
                                                   nearIR, NL-DFT gradient (VV10), updates on ESD,
                                                   ML-optimized integration grids, MBIS, APM,
                                                   GOAT, DOCKER, SOLVATOR, interface openCOSMO-RS
   S Lehtola, MJT Oliveira, MAL Marques          : LibXC Library
   Liviu Ungur et al                             : ANISO software


 Your calculation uses the libint2 library for the computation of 2-el integrals
 For citations please refer to: http://libint.valeyev.net

 Your ORCA version has been built with support for libXC version: 6.2.2
 For citations please refer to: https://libxc.gitlab.io

 This ORCA versions uses:
   CBLAS   interface :  Fast vector & matrix operations
   LAPACKE interface :  Fast linear algebra routines
   SCALAPACK package :  Parallel linear algebra routines
   Shared memory     :  Shared parallel matrices
   BLAS/LAPACK       :  OpenBLAS 0.3.27  USE64BITINT DYNAMIC_ARCH NO_AFFINITY SkylakeX SINGLE_THREADED
        Core in use  :  SkylakeX
   Copyright (c) 2011-2014, The OpenBLAS Project




***************************************
The coordinates will be read from file: xtb_opt.xyz
***************************************


Your calculation utilizes the geometrical counterpoise correction gCP
Please cite in your paper:
H.Kruse, S. Grimme J.Chem.Phys., 136, (2012), 154101 
   

Your calculation utilizes the atom-pairwise dispersion correction
based on EEQ partial charges (D4)


Your calculation utilizes the SMD solvation module
Please cite in your paper:
A.V. Marenich, C.J. Cramer, D.G. Truhlar J. Phys. Chem. B, 113, (2009), 6378 

================================================================================

----- Orbital basis set information -----
Your calculation utilizes the basis: def2-mTZVPP
   Stefan Grimme, Andreas Hansen, Sebastian Ehlert, and Jan-Michael Mewes 
   J. Chem. Phys. 154, 064103 (2021). DOI: 10.1063/5.0040021

----- AuxJ basis set information -----
Your calculation utilizes the auxiliary basis: def2/J
   F. Weigend, Phys. Chem. Chem. Phys. 8, 1057 (2006).

================================================================================
                                        WARNINGS
                       Please study these warnings very carefully!
================================================================================

WARNING: Old DensityContainer found on disk!
         Will remove this file - 
         If you want to keep old densities, please start your calculation with a different basename. 

Using LibXC functional ID 497 : Re-regularized SCAN exchange by Furness et al
[ 1]  J. W. Furness, A. D. Kaplan, J. Ning, J. P. Perdew, and J. Sun.,  J. Phys. Chem. Lett. 11, 8208-8215 (2020)
[ 2]  J. W. Furness, A. D. Kaplan, J. Ning, J. P. Perdew, and J. Sun.,  J. Phys. Chem. Lett. 11, 9248-9248 (2020)
Using LibXC functional ID 498 : Re-regularized SCAN correlation by Furness et al
[ 1]  J. W. Furness, A. D. Kaplan, J. Ning, J. P. Perdew, and J. Sun.,  J. Phys. Chem. Lett. 11, 8208-8215 (2020)
[ 2]  J. W. Furness, A. D. Kaplan, J. Ning, J. P. Perdew, and J. Sun.,  J. Phys. Chem. Lett. 11, 9248-9248 (2020)
Using LibXC functional ID 497 : Re-regularized SCAN exchange by Furness et al
[ 1]  J. W. Furness, A. D. Kaplan, J. Ning, J. P. Perdew, and J. Sun.,  J. Phys. Chem. Lett. 11, 8208-8215 (2020)
[ 2]  J. W. Furness, A. D. Kaplan, J. Ning, J. P. Perdew, and J. Sun.,  J. Phys. Chem. Lett. 11, 9248-9248 (2020)
Using LibXC functional ID 498 : Re-regularized SCAN correlation by Furness et al
[ 1]  J. W. Furness, A. D. Kaplan, J. Ning, J. P. Perdew, and J. Sun.,  J. Phys. Chem. Lett. 11, 8208-8215 (2020)
[ 2]  J. W. Furness, A. D. Kaplan, J. Ning, J. P. Perdew, and J. Sun.,  J. Phys. Chem. Lett. 11, 9248-9248 (2020)

================================================================================
                                       INPUT FILE
================================================================================
NAME = xtb_opt.inp
|  1> ! r2scan-3c def2/J RI DEFGRID2 scfconv7 ENGRAD tightSCF miniprint
|  2> %cpcm
|  3>     smd true
|  4>     smdsolvent "water"
|  5> end
|  6> * xyzfile 0 1 xtb_opt.xyz
|  7> 
|  8>                          ****END OF INPUT****
================================================================================

                     *******************************
                     * Energy+Gradient Calculation *
                     *******************************

---------------------------------
CARTESIAN COORDINATES (ANGSTROEM)
---------------------------------
  C      2.268883    1.080199    0.198266
  C      1.214335   -0.021244    0.223359
  C      1.755938   -1.282664   -0.449247
  N     -0.024253    0.464268   -0.435621
  C     -1.258914    0.169448    0.319951
  C     -1.597439   -1.317081    0.297692
  C     -2.402058    0.993135   -0.261345
  H      1.930776    1.964474    0.749169
  H      3.204017    0.733536    0.648754
  H      2.484426    1.378291   -0.834754
  H      0.996863   -0.258841    1.278254
  H      2.104733   -1.053836   -1.462763
  H      0.994459   -2.063142   -0.521491
  H      2.601189   -1.684202    0.120361
  H      0.039144    1.477868   -0.471247
  H     -1.133590    0.464431    1.379265
  H     -2.531240   -1.490870    0.842354
  H     -1.727502   -1.671751   -0.731138
  H     -0.820480   -1.920061    0.776372
  H     -3.315979    0.838530    0.319993
  H     -2.604159    0.705303   -1.299189
  H     -2.165992    2.063078   -0.241002

----------------------------
CARTESIAN COORDINATES (A.U.)
----------------------------
  NO LB      ZA    FRAG     MASS         X           Y           Z
   0 C     6.0000    0    12.011    4.287568    2.041280    0.374669
   1 C     6.0000    0    12.011    2.294761   -0.040145    0.422087
   2 C     6.0000    0    12.011    3.318242   -2.423885   -0.848953
   3 N     7.0000    0    14.007   -0.045831    0.877340   -0.823204
   4 C     6.0000    0    12.011   -2.379004    0.320211    0.604620
   5 C     6.0000    0    12.011   -3.018723   -2.488923    0.562557
   6 C     6.0000    0    12.011   -4.539231    1.876754   -0.493870
   7 H     1.0000    0     1.008    3.648639    3.712317    1.415724
   8 H     1.0000    0     1.008    6.054714    1.386183    1.225968
   9 H     1.0000    0     1.008    4.694884    2.604593   -1.577456
  10 H     1.0000    0     1.008    1.883798   -0.489138    2.415550
  11 H     1.0000    0     1.008    3.977369   -1.991462   -2.764222
  12 H     1.0000    0     1.008    1.879254   -3.898774   -0.985476
  13 H     1.0000    0     1.008    4.915535   -3.182680    0.227449
  14 H     1.0000    0     1.008    0.073972    2.792765   -0.890527
  15 H     1.0000    0     1.008   -2.142174    0.877647    2.606433
  16 H     1.0000    0     1.008   -4.783351   -2.817337    1.591819
  17 H     1.0000    0     1.008   -3.264506   -3.159151   -1.381650
  18 H     1.0000    0     1.008   -1.550482   -3.628389    1.467130
  19 H     1.0000    0     1.008   -6.266292    1.584592    0.604700
  20 H     1.0000    0     1.008   -4.921147    1.332829   -2.455111
  21 H     1.0000    0     1.008   -4.093131    3.898652   -0.455429

------------------------------------------------------------------------------
                   ___                                                        
                  /   \      - P O W E R E D   B Y -                         
                 /     \                                                     
                 |  |  |   _    _      __       _____    __    __             
                 |  |  |  | |  | |    /  \     |  _  \  |  |  /  |          
                  \  \/   | |  | |   /    \    | | | |  |  | /  /          
                 / \  \   | |__| |  /  /\  \   | |_| |  |  |/  /          
                |  |  |   |  __  | /  /__\  \  |    /   |      \           
                |  |  |   | |  | | |   __   |  |    \   |  |\   \          
                \     /   | |  | | |  |  |  |  | |\  \  |  | \   \       
                 \___/    |_|  |_| |__|  |__|  |_| \__\ |__|  \__/        
                                                                              
                      - O R C A' S   B I G   F R I E N D -                    
                                      &                                       
                       - I N T E G R A L  F E E D E R -                       
                                                                              
 v1 FN, 2020, v2 2021, v3 2022-2024                                           
------------------------------------------------------------------------------


----------------------
SHARK INTEGRAL PACKAGE
----------------------

Number of atoms                             ...     22
Number of basis functions                   ...    213
Number of shells                            ...    109
Maximum angular momentum                    ...      2
Integral batch strategy                     ... SHARK/LIBINT Hybrid
RI-J (if used) integral strategy            ... SPLIT-RIJ (Revised 2003 algorithm where possible)
Printlevel                                  ...      1
Contraction scheme used                     ... SEGMENTED contraction
Prescreening option                         ... SCHWARTZ
   Thresh                                   ... 3.000e-11
   Tcut                                     ... 1.000e-12
   Tpresel                                  ... 1.000e-12 
Coulomb Range Separation                    ... NOT USED
Exchange Range Separation                   ... NOT USED
Multipole approximations                    ... NOT USED
Finite Nucleus Model                        ... NOT USED
CABS basis                                  ... NOT available
Auxiliary Coulomb fitting basis             ... AVAILABLE
   # of basis functions in Aux-J            ...    508
   # of shells in Aux-J                     ...    180
   Maximum angular momentum in Aux-J        ...      4
Auxiliary J/K fitting basis                 ... NOT available
Auxiliary Correlation fitting basis         ... NOT available
Auxiliary 'external' fitting basis          ... NOT available

Checking pre-screening integrals            ... done (  0.0 sec) Dimension = 109
Check shell pair data                       ... done (  0.0 sec)
Shell pair information
Shell pair cut-off parameter TPreSel        ...   1.0e-12
Total number of shell pairs                 ...      5995
Shell pairs after pre-screening             ...      5501
Total number of primitive shell pairs       ...     20702
Primitive shell pairs kept                  ...     13815
          la=0 lb=0:   1961 shell pairs
          la=1 lb=0:   2140 shell pairs
          la=1 lb=1:    606 shell pairs
          la=2 lb=0:    486 shell pairs
          la=2 lb=1:    272 shell pairs
          la=2 lb=2:     36 shell pairs

Calculating one electron integrals          ... done (  0.0 sec)
Calculating RI/J V-Matrix + Cholesky decomp.... done (  0.1 sec)
Calculating Nuclear repulsion               ... done (  0.0 sec) ENN=    335.217405936960 Eh

Diagonalization of the overlap matrix:
Smallest eigenvalue                        ... 2.145e-04
Time for diagonalization                   ...    0.011 sec
Threshold for overlap eigenvalues          ... 1.000e-07
Number of eigenvalues below threshold      ... 0
Time for construction of square roots      ...    0.018 sec
Total time needed                          ...    0.039 sec

-------------------
DFT GRID GENERATION
-------------------

General Integration Accuracy     IntAcc      ... 4.388
Radial Grid Type                 RadialGrid  ... OptM3 with GC (2021)
Angular Grid (max. ang.)         AngularGrid ... 4 (Lebedev-302)
Angular grid pruning method      GridPruning ... 4 (adaptive)
Weight generation scheme         WeightScheme... mBecke (2022)
Basis function cutoff            BFCut       ... 1.0000e-11
Integration weight cutoff        WCut        ... 1.0000e-14
Partially contracted basis set               ... off
Rotationally invariant grid construction     ... off
Angular grids for H and He will be reduced by one unit

Total number of grid points                  ...    89915
Total number of batches                      ...     1416
Average number of points per batch           ...       63
Average number of grid points per atom       ...     4087
Initializing property integral containers    ... done (  0.0 sec)

SHARK setup successfully completed in   1.2 seconds

Maximum memory used throughout the entire STARTUP-calculation: 38.8 MB
Occupation numbers will be reassigned to an Aufbau configuration
             **** ENERGY FILE WAS UPDATED (xtb_opt.en.tmp) ****
Finished Guess after   0.3 sec
Maximum memory used throughout the entire GUESS-calculation: 14.8 MB
--------------------
CPCM SOLVATION MODEL
--------------------
CPCM parameters:
  Epsilon                                         ...      78.3550
  Refrac                                          ...       1.3328
  Rsolv                                           ...       1.3000
  Surface type                                    ... GAUSSIAN VDW
  Discretization scheme                           ... Constant charge density
    Threshold for H atoms                         ...       5.0000 (charges/Ang^2)
    Threshold for non-H atoms                     ...       5.0000 (charges/Ang^2)
  Epsilon function type                           ...         CPCM
Solvent:                                          ... WATER
SMD-CDS solvent descriptors:
  Soln                                            ...       1.3328
  Soln25                                          ...       1.3323
  Sola                                            ...       0.0000
  Solb                                            ...       0.0000
  Solg                                            ...       0.0000
  Solc                                            ...       0.0000
  Solh                                            ...       0.0000
Radii:
  Scheme                                          ... Element-dependent radii
  Radius for C  used is    3.4960 Bohr (=   1.8500 Ang.)
  Radius for N  used is    3.5716 Bohr (=   1.8900 Ang.)
  Radius for H  used is    2.2677 Bohr (=   1.2000 Ang.)
Calculating surface                               ...        done! (  0.0s)
Cavity surface points                             ...         1595
Cavity Volume                                     ...     902.4980
Cavity Surface-area                               ...     581.4942
Calculating surface distance matrix               ...        done! (  0.0s)
Performing Cholesky decomposition & store         ...        done! (  0.1s)
Overall time for CPCM initialization              ...                 0.1s

----------------------------------------D-I-I-S--------------------------------------------
Iteration    Energy (Eh)           Delta-E    RMSDP     MaxDP     DIISErr   Damp  Time(sec)
-------------------------------------------------------------------------------------------
               ***  Starting incremental Fock matrix formation  ***
                              *** Initializing SOSCF ***
---------------------------------------S-O-S-C-F--------------------------------------
Iteration    Energy (Eh)           Delta-E    RMSDP     MaxDP     MaxGrad    Time(sec)
--------------------------------------------------------------------------------------
    1    -292.3346565049560581     0.00e+00  4.09e-05  8.26e-04  5.10e-05     3.0
               *** Restarting incremental Fock matrix formation ***
    2    -292.3346688937127169    -1.24e-05  1.78e-05  4.50e-04  6.30e-05     2.9
    3    -292.3346694958186731    -6.02e-07  7.67e-06  1.65e-04  4.77e-05     2.3
    4    -292.3346696669614744    -1.71e-07  4.53e-06  1.22e-04  2.59e-05     2.7
    5    -292.3346697185177732    -5.16e-08  1.32e-06  3.31e-05  1.02e-05     2.5
                 **** Energy Check signals convergence ****

               *****************************************************
               *                     SUCCESS                       *
               *           SCF CONVERGED AFTER   5 CYCLES          *
               *****************************************************


SMD CDS free energy correction energy :                 2.04996     Kcal/mol
Total Energy after SMD CDS correction =              -292.331402895 Eh
             **** ENERGY FILE WAS UPDATED (xtb_opt.en.tmp) ****

----------------
TOTAL SCF ENERGY
----------------

Total Energy       :       -292.33140289456486 Eh           -7954.74188 eV

Components:
Nuclear Repulsion  :        335.21740593696012 Eh            9121.72936 eV
Electronic Energy  :       -627.54334588038182 Eh          -17076.32258 eV
One Electron Energy:      -1057.38285063156945 Eh          -28772.85015 eV
Two Electron Energy:        429.83950475118758 Eh           11696.52756 eV
CPCM Dielectric    :         -0.00872977509601 Eh              -0.23755 eV
SMD CDS (Gcds)     :          0.00326682395288 Eh               0.08889 eV

Virial components:
Potential Energy   :       -583.11874613844725 Eh          -15867.46777 eV
Kinetic Energy     :        290.78734324388245 Eh            7912.72588 eV
Virial Ratio       :          2.00530992729414

DFT components:
N(Alpha)           :       29.000068237091 electrons
N(Beta)            :       29.000068237091 electrons
N(Total)           :       58.000136474182 electrons
E(X)               :      -43.172674720350 Eh       
E(C)               :       -1.796509854784 Eh       
E(XC)              :      -44.969184575134 Eh       

CPCM Solvation Model Properties:
Surface-charge          :         -0.05014697245083
Corrected charge        :         -0.00000000000000
Outlying charge corr.   :          0.00019244104336 Eh               0.00524 eV
Free-energy (cav+disp)  :          0.00326682395288 Eh               0.08889 eV

---------------
SCF CONVERGENCE
---------------

  Last Energy change         ...    5.1556e-08  Tolerance :   1.0000e-07
  Last MAX-Density change    ...    3.3105e-05  Tolerance :   1.0000e-07
  Last RMS-Density change    ...    1.3204e-06  Tolerance :   5.0000e-09
  Last DIIS Error            ...    1.0665e-03  Tolerance :   1.0000e-07
  Last Orbital Gradient      ...    1.0241e-05  Tolerance :   1.0000e-04
  Last Orbital Rotation      ...    1.1479e-05  Tolerance :   1.0000e-04


----------------
ORBITAL ENERGIES
----------------

  NO   OCC          E(Eh)            E(eV) 
   0   2.0000     -14.133903      -384.6030 
   1   2.0000     -10.051776      -273.5227 
   2   2.0000     -10.051089      -273.5040 
   3   2.0000     -10.011838      -272.4359 
   4   2.0000     -10.010743      -272.4062 
   5   2.0000     -10.008698      -272.3505 
   6   2.0000     -10.006887      -272.3012 
   7   2.0000      -0.862488       -23.4695 
   8   2.0000      -0.745246       -20.2792 
   9   2.0000      -0.690232       -18.7822 
  10   2.0000      -0.646763       -17.5993 
  11   2.0000      -0.638811       -17.3829 
  12   2.0000      -0.539800       -14.6887 
  13   2.0000      -0.525641       -14.3034 
  14   2.0000      -0.442797       -12.0491 
  15   2.0000      -0.431292       -11.7361 
  16   2.0000      -0.417918       -11.3721 
  17   2.0000      -0.390355       -10.6221 
  18   2.0000      -0.363950        -9.9036 
  19   2.0000      -0.356954        -9.7132 
  20   2.0000      -0.347746        -9.4626 
  21   2.0000      -0.341421        -9.2906 
  22   2.0000      -0.333936        -9.0869 
  23   2.0000      -0.316849        -8.6219 
  24   2.0000      -0.310661        -8.4535 
  25   2.0000      -0.295445        -8.0395 
  26   2.0000      -0.292516        -7.9598 
  27   2.0000      -0.280560        -7.6344 
  28   2.0000      -0.194943        -5.3047 
  29   0.0000       0.082743         2.2516 
  30   0.0000       0.114969         3.1285 
  31   0.0000       0.118951         3.2368 
  32   0.0000       0.124704         3.3934 
  33   0.0000       0.135384         3.6840 
  34   0.0000       0.142346         3.8734 
  35   0.0000       0.146946         3.9986 
  36   0.0000       0.149650         4.0722 
  37   0.0000       0.156714         4.2644 
  38   0.0000       0.162747         4.4286 
  39   0.0000       0.174223         4.7408 
*Only the first 10 virtual orbitals were printed.
Total SCF time: 0 days 0 hours 0 min 14 sec 
Finished LeanSCF after  14.2 sec

Maximum memory used throughout the entire LEANSCF-calculation: 32.4 MB


-------------------------------------------------------------------------------
                          DFT DISPERSION CORRECTION                            
                                                                               
                                DFTD4 V3.4.0                                   
-------------------------------------------------------------------------------
-------------------------   ----------------
Dispersion correction           -0.005954109
-------------------------   ----------------

[...]
  Last Orbital Rotation      ...    1.9227e-05  Tolerance :   1.0000e-04


----------------
ORBITAL ENERGIES
----------------

  NO   OCC          E(Eh)            E(eV) 
   0   2.0000     -14.133855      -384.6018 
   1   2.0000     -10.051913      -273.5265 
   2   2.0000     -10.051098      -273.5043 
   3   2.0000     -10.011885      -272.4372 
   4   2.0000     -10.010641      -272.4034 
   5   2.0000     -10.008829      -272.3541 
   6   2.0000     -10.006872      -272.3008 
   7   2.0000      -0.861863       -23.4525 
   8   2.0000      -0.745176       -20.2773 
   9   2.0000      -0.690295       -18.7839 
  10   2.0000      -0.646659       -17.5965 
  11   2.0000      -0.638799       -17.3826 
  12   2.0000      -0.539858       -14.6903 
  13   2.0000      -0.525018       -14.2865 
  14   2.0000      -0.443196       -12.0600 
  15   2.0000      -0.431119       -11.7313 
  16   2.0000      -0.417393       -11.3579 
  17   2.0000      -0.390272       -10.6198 
  18   2.0000      -0.363852        -9.9009 
  19   2.0000      -0.357407        -9.7255 
  20   2.0000      -0.347452        -9.4546 
  21   2.0000      -0.341374        -9.2893 
  22   2.0000      -0.333248        -9.0681 
  23   2.0000      -0.316449        -8.6110 
  24   2.0000      -0.310627        -8.4526 
  25   2.0000      -0.295621        -8.0443 
  26   2.0000      -0.292284        -7.9535 
  27   2.0000      -0.281254        -7.6533 
  28   2.0000      -0.194765        -5.2998 
  29   0.0000       0.082793         2.2529 
  30   0.0000       0.114491         3.1155 
  31   0.0000       0.119146         3.2421 
  32   0.0000       0.124925         3.3994 
  33   0.0000       0.136513         3.7147 
  34   0.0000       0.142182         3.8690 
  35   0.0000       0.146537         3.9875 
  36   0.0000       0.149611         4.0711 
  37   0.0000       0.156576         4.2606 
  38   0.0000       0.162649         4.4259 
  39   0.0000       0.174702         4.7539 
*Only the first 10 virtual orbitals were printed.
Total SCF time: 0 days 0 hours 0 min 6 sec 
Finished LeanSCF after   6.7 sec

Maximum memory used throughout the entire LEANSCF-calculation: 32.5 MB


-------------------------------------------------------------------------------
                          DFT DISPERSION CORRECTION                            
                                                                               
                                DFTD4 V3.4.0                                   
-------------------------------------------------------------------------------
-------------------------   ----------------
Dispersion correction           -0.005957461
-------------------------   ----------------

------------------   -----------------
gCP correction             0.014223879
------------------   -----------------

-------------------------   --------------------
FINAL SINGLE POINT ENERGY      -292.323174417288
-------------------------   --------------------

------------------------------------------------------------------------------
                         ORCA SCF GRADIENT CALCULATION
------------------------------------------------------------------------------

Nuc. rep. gradient        (SHARK) ... done (  0.0 sec)
HCore & Overlap gradient  (SHARK) ... done (  0.3 sec)
Split-RIJ-J gradient      (SHARK) ... done (  1.3 sec)
XC gradient                       ... done (  5.4 sec)
CPCM gradient                     ... done (  0.9 sec)
SMD gradient                      ... done (  0.0 sec)
Dispersion correction             ... done (  0.0 sec)

-------------------
DISPERSION GRADIENT
-------------------

   1   C   :    0.000094245    0.000053844    0.000009740
   2   C   :    0.000071567   -0.000000552    0.000014339
   3   C   :    0.000085095   -0.000065238   -0.000026374
   4   N   :   -0.000000487    0.000045478   -0.000017884
   5   C   :   -0.000075964    0.000009274    0.000021198
   6   C   :   -0.000076912   -0.000068354    0.000021280
   7   C   :   -0.000096755    0.000047605   -0.000014951
   8   H   :    0.000036498    0.000032681    0.000011397
   9   H   :    0.000033845    0.000015499    0.000008770
  10   H   :    0.000032684    0.000022236   -0.000005505
  11   H   :    0.000027169   -0.000000582    0.000012587
  12   H   :    0.000033428   -0.000020792   -0.000023520
  13   H   :    0.000026463   -0.000038473   -0.000014093
  14   H   :    0.000035284   -0.000027798   -0.000004484
  15   H   :    0.000000852    0.000017934   -0.000008751
  16   H   :   -0.000031642    0.000007465    0.000016742
  17   H   :   -0.000033145   -0.000025904    0.000013269
  18   H   :   -0.000033822   -0.000029750   -0.000005412
  19   H   :   -0.000024985   -0.000036992    0.000015637
  20   H   :   -0.000033556    0.000015504   -0.000000256
  21   H   :   -0.000034554    0.000016432   -0.000015745
  22   H   :   -0.000035310    0.000030483   -0.000007984

Difference to translation invariance:
           :   -0.0000000000   -0.0000000000   -0.0000000000

Difference to rotation invariance:
           :    0.0000000000   -0.0000000000    0.0000000000

Norm of the Dispersion gradient    ...    0.0002954323
RMS gradient                       ...    0.0000363652
MAX gradient                       ...    0.0000967547
gCP correction                   ... done

------------------
CARTESIAN GRADIENT
------------------

   1   C   :    0.000006647    0.000014456   -0.000006392
   2   C   :    0.000109687    0.000032297    0.000040876
   3   C   :   -0.000000902   -0.000036420   -0.000001936
   4   N   :    0.000061031   -0.000012310   -0.000090168
   5   C   :   -0.000092591   -0.000034479    0.000048807
   6   C   :   -0.000032975    0.000006306   -0.000003577
   7   C   :   -0.000011354   -0.000006775    0.000033504
   8   H   :   -0.000003868    0.000006649   -0.000027706
   9   H   :    0.000001873    0.000009863   -0.000003404
  10   H   :   -0.000004763   -0.000016331   -0.000009238
  11   H   :   -0.000021256    0.000017470   -0.000012078
  12   H   :   -0.000046513   -0.000020845    0.000028157
  13   H   :    0.000039939   -0.000015714    0.000043567
  14   H   :   -0.000021503    0.000054734   -0.000029297
  15   H   :   -0.000001145    0.000003202    0.000015565
  16   H   :    0.000024633   -0.000001142   -0.000031182
  17   H   :   -0.000003227   -0.000003348   -0.000013787
  18   H   :    0.000010196    0.000007153    0.000005563
  19   H   :   -0.000007126    0.000001837    0.000009509
  20   H   :   -0.000008632   -0.000001462   -0.000006695
  21   H   :    0.000004022    0.000006287   -0.000002342
  22   H   :   -0.000002173   -0.000011429    0.000012254

Difference to translation invariance:
           :    0.0000000000    0.0000000000   -0.0000000000

Difference to rotation invariance:
           :   -0.0004160148    0.0002217940    0.0002392792

Norm of the Cartesian gradient     ...    0.0002438589
RMS gradient                       ...    0.0000300170
MAX gradient                       ...    0.0001096875

-------
TIMINGS
-------

Total SCF gradient time     ....        8.710 sec

Densities                   ....       0.001 sec  (  0.0%)
One electron gradient       ....       0.277 sec  (  3.2%)
RI-J Coulomb gradient       ....       1.342 sec  ( 15.4%)
XC gradient                 ....       5.433 sec  ( 62.4%)
CPCM gradient               ....       0.872 sec  ( 10.0%)
   A-Matrix (El+Nuc)        ....       0.079 sec  (  0.9%)
   Potential                ....       0.793 sec  (  9.1%)
SMD gradient                ....       0.012 sec  (  0.1%)

Maximum memory used throughout the entire SCFGRAD-calculation: 35.0 MB

------------------------------------------------------------------------------
                              ORCA PROPERTY CALCULATIONS
------------------------------------------------------------------------------

GBWName                                 ... xtb_opt.gbw
Number of atoms                         ...     22
Number of basis functions               ...    213
Max core memory                         ...   1024 MB

Electric properties:
Dipole moment                           ... YES
Quadrupole moment                       ...  NO
Static polarizability (Dipole/Dipole)   ...  NO
Static polarizability (Dipole/Quad.)    ...  NO
Static polarizability (Quad./Quad.)     ...  NO
Static polarizability (Velocity)        ...  NO

Atomic electric properties:
Dipole moment                           ...  NO
Quadrupole moment                       ...  NO
Static polarizability                   ...  NO

Choice of electric origin               ... Center of mass
Position of electric origin             ...    -0.009926     0.030263    -0.029196

General magnetic properties:
Magnetizability                         ...  NO

EPR properties:
g-Tensor (aka g-matrix)                 ...  NO
Zero-Field splitting spin-orbit         ...  NO
Zero-field splitting spin-spin          ...  NO
Hyperfine couplings                     ...  NO (   0 nuclei)
Quadrupole couplings                    ...  NO (   0 nuclei)
Contact density                         ...  NO (   0 nuclei)

NMR properties:
Chemical shifts                         ...  NO (   0 nuclei)
Spin-rotation constants                 ...  NO (   0 nuclei)
Spin-spin couplings                     ...  NO (   0 nuclei,    0 pairs)

Choice of magnetic origin               ... GIAO
Position of magnetic origin             ...     0.000000     0.000000     0.000000

Properties with geometric perturbations:
SCF Hessian                             ...  NO
IR spectrum                             ...  NO
VCD spectrum                            ...  NO
X-ray spectroscopy properties:
SCF XES/XAS/RIXS spectra                ...  NO


-------------
DIPOLE MOMENT
-------------

Method             : SCF
Type of density    : Electron Density
Multiplicity       :   1
Irrep              :   0
Energy             :  -292.3314408353690510 Eh
Relativity type    : 
Basis              : AO
                                X                 Y                 Z
Electronic contribution:     -0.085423350       1.041445235      -0.078843010
Nuclear contribution   :      0.128558140      -0.721491897       0.731575919
                        -----------------------------------------
Total Dipole Moment    :      0.043134789       0.319953338       0.652732909
                        -----------------------------------------
Magnitude (a.u.)       :      0.728210821
Magnitude (Debye)      :      1.850964808



--------------------
Rotational spectrum 
--------------------
 
Rotational constants in cm-1:             0.138476             0.051864             0.041839 
Rotational constants in MHz :          4151.402134          1554.838743          1254.304409 

Dipole components along the rotational axes: 
x,y,z [a.u.] :     0.024749    -0.318111     0.654587 
x,y,z [Debye]:     0.062907    -0.808575     1.663827 

 

Dipole moment calculation done in   0.0 sec 

Maximum memory used throughout the entire PROP-calculation: 13.5 MB

--------------------------------
SUGGESTED CITATIONS FOR THIS RUN
--------------------------------

Below you find a list of papers that are relevant to this ORCA run
We neither can nor want to force you to cite these papers, but we appreciate if you do
You receive ORCA, which is the product of decades of hard work by many enthusiastic individuals, for free
The only thing we kindly ask in return is that you cite our papers,
We deeply appreciate it, if you show your appreciation for ORCA by not just citing the generic ORCA reference.

Please note that relegating all ORCA citations to the supporting information does *not* help us.
SI sections are not indexed - citations you put there will not count into any citation statistics
But we need these citations in order to attract the funding resources that allow us to do what we are doing

Therefore, if you are a happy ORCA user, please consider citing a few of the papers listed below in the main body of your paper

In addition to the list printed below, the program has created the file xtb_opt.bibtex that contains the list in bibtex format
You can import this file easily into all common literature databanks and citation aid programs


List of essential papers. We consider these as the minimum necessary citations

  1. Neese,F.
     Software update: the ORCA program system, version 5.0
     WIRES Comput. Molec. Sci., 2022 12(1)e1606
     doi.org/10.1002/wcms.1606
  2. Grimme,S.; Hansen,A.; Ehlert,S.; Mewes,J.
     r2SCAN-3c: A 'Swiss army knife' composite electronic-structure method
     J. Chem. Phys., 2021 154 064103
     doi.org/10.1063/5.0040021

List of papers to cite with high priority. The work reported in these papers was absolutely
necessary for this run to complete.
Our perspective: the developers of density functionals and basis sets usually get cited in chemistry papers
Good! But without the algorithms to do something with them, the functionals or basis sets would not do anything.
Hence, in our opinion, the algorithm design and method developments papers are equally worthy of getting cited

  1. Neese,F.
     An improvement of the resolution of the identity approximation for the formation of the Coulomb matrix
     J. Comp. Chem., 2003 24(14)1740-1747
     doi.org/10.1002/jcc.10318
  2. Garcia-Rates,M.; Neese,F.
     Effect of the Solute Cavity on the Solvation Energy and its Derivatives within the Framework of the Gaussian Charge Scheme
     J. Comput. Chem., 2020 41 922-939
     doi.org/10.1002/jcc.26139
  3. Neese,F.
     The SHARK Integral Generation and Digestion System
     J. Comp. Chem., 2022  1-16
     doi.org/10.1002/jcc.26942
  4. Lehtola,S.; Steigemann,C.; Oliveira,M.; Marques,M.
     Recent developments in Libxc - A comprehensive library of functionals for density functional theory
     Software X, 2018 7 
     doi.org/10.1016/j.softx.2017.11.002
  5. Caldeweyher,E.; Bannwarth,C.; Grimme,S.
     Extension of the D3 dispersion coefficient model
     J. Chem. Phys., 2017 147 034112-XXXX
     doi.org/10.1063/1.4993215
  6. Caldeweyher,E.; Ehlert,S.; Hansen,A.; Neugebauer,H.; Spicher,S.; Bannwarth,C.; Grimme,S.
     A generally applicable atomic-charge dependent London dispersion correction
     J. Chem. Phys., 2019 150 154122-XXXX
     doi.org/10.1063/1.5090222
  7. Caldeweyher,E.; Mewes,J.; Ehlert,S.; Grimme,S.
     Extension and evaluation of the D4 London-dispersion model for periodic systems
     Phys. Chem. Chem. Phys., 2020 22(16)8499-8512
     doi.org/10.1039/D0CP00502A

List of suggested additional citations. These are papers that are important in the 'surrounding' of 
of this run, or papers that preceded the highly important papers. If you like your results we are grateful for a citation.

  1. Neese,F.
     The ORCA program system
     WIRES Comput. Molec. Sci., 2012 2(1)73-78
     doi.org/10.1002/wcms.81
  2. Neese,F.
     Software update: the ORCA program system, version 4.0
     WIRES Comput. Molec. Sci., 2018 8(1)1-6
     doi.org/10.1002/wcms.1327
  3. Neese,F.; Wennmohs,F.; Becker,U.; Riplinger,C.
     The ORCA quantum chemistry program package
     J. Chem. Phys., 2020 152 Art. No. L224108
     doi.org/10.1063/5.0004608

List of optional additional citations

  1. Neese,F.
     Approximate second-order SCF convergence for spin unrestricted wavefunctions
     Chem. Phys. Lett., 2000 325(1-3)93-98
     doi.org/10.1016/s0009-2614(00)00662-x

Timings for individual modules:

Sum of individual times          ...       17.293 sec (=   0.288 min)
Startup calculation              ...        1.337 sec (=   0.022 min)   7.7 %
SCF iterations                   ...        7.021 sec (=   0.117 min)  40.6 %
Property calculations            ...        0.116 sec (=   0.002 min)   0.7 %
SCF Gradient evaluation          ...        8.819 sec (=   0.147 min)  51.0 %
                             ****ORCA TERMINATED NORMALLY****
TOTAL RUN TIME: 0 days 0 hours 0 minutes 18 seconds 208 msec
  ------------------------------------------------------------------------
          * successful ORCA run, taking over control again...

         :::::::::::::::::::::::::::::::::::::::::::::::::::::
         ::                  ORCA SUMMARY                   ::
         :::::::::::::::::::::::::::::::::::::::::::::::::::::
         :: total energy            -292.323174417288 Eh    ::
         :: gradient norm              0.000243858937 Eh/a0 ::
         :: HOMO-LUMO gap              0.000000000000 eV    ::
         :::::::::::::::::::::::::::::::::::::::::::::::::::::

           -------------------------------------------------
          |                Property Printout                |
           -------------------------------------------------
           -------------------------------------------------
          |                Geometry Summary                 |
           -------------------------------------------------

      molecular mass/u    :      101.1902299
   center of mass at/Å    :       -0.0052527       0.0160146      -0.0154501
  moments of inertia/u·Å² :        0.1217328E+03   0.3250266E+03   0.4029037E+03
rotational constants/cm⁻¹ :        0.1384806E+00   0.5186540E-01   0.4184035E-01

 * 19 selected distances

     #   Z          #   Z                                           value/Å
     1   6 C        2   6 C                                       1.5251003
     2   6 C        3   6 C                                       1.5278561 (max)
     5   6 C        6   6 C                                       1.5240250
     5   6 C        7   6 C                                       1.5236744
     1   6 C        8   1 H                                       1.0956887
     1   6 C        9   1 H                                       1.0945005
     1   6 C       10   1 H                                       1.0968652
     2   6 C       11   1 H                                       1.1029114
     3   6 C       12   1 H                                       1.0960628
     3   6 C       13   1 H                                       1.0932528
     3   6 C       14   1 H                                       1.0957029
     4   7 N       15   1 H                                       1.0162673 (min)
     5   6 C       16   1 H                                       1.1068277
     6   6 C       17   1 H                                       1.0951073
     6   6 C       18   1 H                                       1.0962795
     6   6 C       19   1 H                                       1.0938562
     7   6 C       20   1 H                                       1.0944172
     7   6 C       21   1 H                                       1.0959696
     7   6 C       22   1 H                                       1.0960201

 * 3 distinct bonds (by element types)

   Z      Z             #   av. dist./Å        max./Å        min./Å
   1 H    6 C          14     1.0966759     1.1068277     1.0932528
   6 C    6 C           4     1.5251640     1.5278561     1.5236744
   1 H    7 N           1     1.0162673     1.0162673     1.0162673


optimized geometry written to: xtbopt.coord


           -------------------------------------------------
          | TOTAL ENERGY             -292.323174417288 Eh   |
          | GRADIENT NORM               0.000243858937 Eh/α |
           -------------------------------------------------

------------------------------------------------------------------------
 * finished run on 2025/04/11 at 12:44:10.639     
------------------------------------------------------------------------
 total:
 * wall-time:     0 d,  0 h,  3 min, 26.168 sec
 *  cpu-time:     0 d,  0 h,  0 min,  3.709 sec
 * ratio c/w:     0.018 speedup
 SCF:
 * wall-time:     0 d,  0 h,  0 min, 18.425 sec
 *  cpu-time:     0 d,  0 h,  0 min,  1.233 sec
 * ratio c/w:     0.067 speedup
 ANC optimizer:
 * wall-time:     0 d,  0 h,  3 min,  7.679 sec
 *  cpu-time:     0 d,  0 h,  0 min,  2.119 sec
 * ratio c/w:     0.011 speedup

