
                                 *****************
                                 * O   R   C   A *
                                 *****************

                                            #,                                       
                                            ###                                      
                                            ####                                     
                                            #####                                    
                                            ######                                   
                                           ########,                                 
                                     ,,################,,,,,                         
                               ,,#################################,,                 
                          ,,##########################################,,             
                       ,#########################################, ''#####,          
                    ,#############################################,,   '####,        
                  ,##################################################,,,,####,       
                ,###########''''           ''''###############################       
              ,#####''   ,,,,##########,,,,          '''####'''          '####       
            ,##' ,,,,###########################,,,                        '##       
           ' ,,###''''                  '''############,,,                           
         ,,##''                                '''############,,,,        ,,,,,,###''
      ,#''                                            '''#######################'''  
     '                                                          ''''####''''         
             ,#######,   #######,   ,#######,      ##                                
            ,#'     '#,  ##    ##  ,#'     '#,    #''#        ,####,   ,####,        
            ##       ##  ##   ,#'  ##            #'  '#       #'       #'  '#        
            ##       ##  #######   ##           ,######,      #####,   #    #        
            '#,     ,#'  ##    ##  '#,     ,#' ,#      #,     #,   #   #,  ,#        
             '#######'   ##     ##  '#######'  #'      '#     '####' # '####'        



                #########################################################
                #                        -***-                          #
                #          Department of theory and spectroscopy        #
                #                                                       #
                #                      Frank Neese                      #
                #                                                       #
                #     Directorship, Architecture, Infrastructure        #
                #                    SHARK, DRIVERS                     #
                #        Core code/Algorithms in most modules           #
                #                                                       #
                #        Max Planck Institute fuer Kohlenforschung      #
                #                Kaiser Wilhelm Platz 1                 #
                #                 D-45470 Muelheim/Ruhr                 #
                #                      Germany                          #
                #                                                       #
                #                  All rights reserved                  #
                #                        -***-                          #
                #########################################################


                         Program Version 6.0.0  -   RELEASE  -


 With contributions from (in alphabetic order):
   Daniel Aravena         : Magnetic Suceptibility
   Michael Atanasov       : Ab Initio Ligand Field Theory (pilot matlab implementation)
   Alexander A. Auer      : GIAO ZORA, VPT2 properties, NMR spectrum
   Ute Becker             : All parallelization in ORCA, NUMFREQ, NUMCALC
   Giovanni Bistoni       : ED, misc. LED, open-shell LED, HFLD
   Martin Brehm           : Molecular dynamics
   Dmytro Bykov           : pre 5.0 version of the SCF Hessian
   Marcos Casanova-Páez   : Triplet and SCS-CIS(D). UHF-(DLPNO)-IP/EA/STEOM-CCSD. UHF-CVS-IP/STEOM-CCSD
   Vijay G. Chilkuri      : MRCI spin determinant printing, contributions to CSF-ICE
   Pauline Colinet        : FMM embedding
   Dipayan Datta          : RHF DLPNO-CCSD density
   Achintya Kumar Dutta   : EOM-CC, STEOM-CC
   Nicolas Foglia         : Exact transition moments, OPA infrastructure, MCD improvements
   Dmitry Ganyushin       : Spin-Orbit,Spin-Spin,Magnetic field MRCI
   Miquel Garcia          : C-PCM and meta-GGA Hessian, CCSD/C-PCM, Gaussian charge scheme
   Tiago L. C. Gouveia    : GS-ROHF, GS-ROCIS
   Yang Guo               : DLPNO-NEVPT2, F12-NEVPT2, CIM, IAO-localization
   Andreas Hansen         : Spin unrestricted coupled pair/coupled cluster methods
   Ingolf Harden          : AUTO-CI MPn and infrastructure 
   Benjamin Helmich-Paris : MC-RPA, TRAH-(SCF,CASSCF), AVAS, COSX integrals, SCF dyn. polar.
   Lee Huntington         : MR-EOM, pCC
   Robert Izsak           : Overlap fitted RIJCOSX, COSX-SCS-MP3, EOM
   Riya Kayal             : Wick's Theorem for AUTO-CI, AUTO-CI UHF-CCSDT
   Emily Kempfer          : AUTO-CI, RHF CISDT and CCSDT
   Christian Kollmar      : KDIIS, OOCD, Brueckner-CCSD(T), CCSD density, CASPT2, CASPT2-K, improved NEVPT2
   Axel Koslowski         : Symmetry handling
   Simone Kossmann        : Meta GGA functionals, TD-DFT gradient, OOMP2, (MP2 Hessian; deprecated post 5.0)
   Lucas Lang             : DCDCAS
   Marvin Lechner         : AUTO-CI (C++ implementation), FIC-MRCC
   Spencer Leger          : CASSCF response
   Dagmar Lenk            : GEPOL surface, SMD, ORCA-2-JSON
   Dimitrios Liakos       : Extrapolation schemes; Compound Job, initial MDCI parallelization
   Dimitrios Manganas     : Further ROCIS development; embedding schemes. LFT, Crystal Embedding
   Dimitrios Pantazis     : SARC Basis sets
   Anastasios Papadopoulos: AUTO-CI, single reference methods and gradients
   Taras Petrenko         : pre 6.0 DFT Hessian and TD-DFT gradient, (ASA, deprecated), ECA, 1-Electron XAS/XES, NRVS
   Peter Pinski           : DLPNO-MP2, DLPNO-MP2 Gradient
   Christoph Reimann      : Effective Core Potentials
   Marius Retegan         : Local ZFS, SOC
   Christoph Riplinger    : Optimizer, TS searches, QM/MM, DLPNO-CCSD(T), (RO)-DLPNO pert. Triples
   Michael Roemelt        : Original ROCIS implementation
   Masaaki Saitow         : Open-shell DLPNO-CCSD energy and density
   Barbara Sandhoefer     : DKH picture change effects
   Kantharuban Sivalingam : CASSCF convergence/infrastructure, NEVPT2 and variants, FIC-MRCI
   Bernardo de Souza      : ESD, SOC TD-DFT
   Georgi Stoychev        : AutoAux, RI-MP2 NMR, DLPNO-MP2 response, X2C
   Van Anh Tran           : RI-MP2 g-tensors
   Willem Van den Heuvel  : Paramagnetic NMR
   Zikuan Wang            : NOTCH, Electric field optimization 
   Frank Wennmohs         : Technical directorship and infrastructure
   Hang Xu                : AUTO-CI-Response properties 


 We gratefully acknowledge several colleagues who have allowed us to
 interface, adapt or use parts of their codes:
   Stefan Grimme, W. Hujo, H. Kruse, P. Pracht,  : VdW corrections, initial TS optimization,
                  C. Bannwarth, S. Ehlert,         DFT functionals, gCP, sTDA/sTD-DF
                  L. Wittmann, M. Mueller
   Ed Valeev, F. Pavosevic, A. Kumar             : LibInt (2-el integral package), F12 methods
   Garnet Chan, S. Sharma, J. Yang, R. Olivares  : DMRG
   Ulf Ekstrom                                   : XCFun DFT Library
   Mihaly Kallay                                 : mrcc  (arbitrary order and MRCC methods)
   Frank Weinhold                                : gennbo (NPA and NBO analysis)
   Simon Mueller                                 : openCOSMO-RS
   Christopher J. Cramer and Donald G. Truhlar   : smd solvation model
   Lars Goerigk                                  : TD-DFT with DH, B97 family of functionals
   V. Asgeirsson, H. Jonsson                     : NEB implementation
   FAccTs GmbH                                   : IRC, NEB, NEB-TS, DLPNO-Multilevel, CI-OPT
                                                   MM, QMMM, 2- and 3-layer-ONIOM, Crystal-QMMM,
                                                   LR-CPCM, SF, NACMEs, symmetry and pop. for TD-DFT,
                                                   nearIR, NL-DFT gradient (VV10), updates on ESD,
                                                   ML-optimized integration grids, MBIS, APM,
                                                   GOAT, DOCKER, SOLVATOR, interface openCOSMO-RS
   S Lehtola, MJT Oliveira, MAL Marques          : LibXC Library
   Liviu Ungur et al                             : ANISO software


 Your calculation uses the libint2 library for the computation of 2-el integrals
 For citations please refer to: http://libint.valeyev.net

 Your ORCA version has been built with support for libXC version: 6.2.2
 For citations please refer to: https://libxc.gitlab.io

 This ORCA versions uses:
   CBLAS   interface :  Fast vector & matrix operations
   LAPACKE interface :  Fast linear algebra routines
   SCALAPACK package :  Parallel linear algebra routines
   Shared memory     :  Shared parallel matrices
   BLAS/LAPACK       :  OpenBLAS 0.3.27  USE64BITINT DYNAMIC_ARCH NO_AFFINITY SkylakeX SINGLE_THREADED
        Core in use  :  SkylakeX
   Copyright (c) 2011-2014, The OpenBLAS Project


Your calculation utilizes the geometrical counterpoise correction gCP
Please cite in your paper:
H.Kruse, S. Grimme J.Chem.Phys., 136, (2012), 154101 
   

Your calculation utilizes the atom-pairwise dispersion correction
based on EEQ partial charges (D4)


Your calculation utilizes the SMD solvation module
Please cite in your paper:
A.V. Marenich, C.J. Cramer, D.G. Truhlar J. Phys. Chem. B, 113, (2009), 6378 

================================================================================

----- Orbital basis set information -----
Your calculation utilizes the basis: def2-mTZVPP
   Stefan Grimme, Andreas Hansen, Sebastian Ehlert, and Jan-Michael Mewes 
   J. Chem. Phys. 154, 064103 (2021). DOI: 10.1063/5.0040021

----- AuxJ basis set information -----
Your calculation utilizes the auxiliary basis: def2/J
   F. Weigend, Phys. Chem. Chem. Phys. 8, 1057 (2006).

================================================================================
                                        WARNINGS
                       Please study these warnings very carefully!
================================================================================

Using LibXC functional ID 497 : Re-regularized SCAN exchange by Furness et al
[ 1]  J. W. Furness, A. D. Kaplan, J. Ning, J. P. Perdew, and J. Sun.,  J. Phys. Chem. Lett. 11, 8208-8215 (2020)
[ 2]  J. W. Furness, A. D. Kaplan, J. Ning, J. P. Perdew, and J. Sun.,  J. Phys. Chem. Lett. 11, 9248-9248 (2020)
Using LibXC functional ID 498 : Re-regularized SCAN correlation by Furness et al
[ 1]  J. W. Furness, A. D. Kaplan, J. Ning, J. P. Perdew, and J. Sun.,  J. Phys. Chem. Lett. 11, 8208-8215 (2020)
[ 2]  J. W. Furness, A. D. Kaplan, J. Ning, J. P. Perdew, and J. Sun.,  J. Phys. Chem. Lett. 11, 9248-9248 (2020)
Using LibXC functional ID 497 : Re-regularized SCAN exchange by Furness et al
[ 1]  J. W. Furness, A. D. Kaplan, J. Ning, J. P. Perdew, and J. Sun.,  J. Phys. Chem. Lett. 11, 8208-8215 (2020)
[ 2]  J. W. Furness, A. D. Kaplan, J. Ning, J. P. Perdew, and J. Sun.,  J. Phys. Chem. Lett. 11, 9248-9248 (2020)
Using LibXC functional ID 498 : Re-regularized SCAN correlation by Furness et al
[ 1]  J. W. Furness, A. D. Kaplan, J. Ning, J. P. Perdew, and J. Sun.,  J. Phys. Chem. Lett. 11, 8208-8215 (2020)
[ 2]  J. W. Furness, A. D. Kaplan, J. Ning, J. P. Perdew, and J. Sun.,  J. Phys. Chem. Lett. 11, 9248-9248 (2020)

================================================================================
                                       INPUT FILE
================================================================================
NAME = sp_solv.inp
|  1> ! r2scan-3c def2/J RI DEFGRID2 scfconv6 printgap
|  2> %output
|  3>     printlevel normal
|  4> end
|  5> %cpcm
|  6>     smd true
|  7>     smdsolvent "water"
|  8> end
|  9> * xyz 0 1
| 10> C -1.9905021197 0.6619504572 -0.54929544
| 11> C -1.4903360222 -0.5843576526 0.1708507452
| 12> C -0.2171528101 -0.3015349017 0.9746954133
| 13> N 0.8884390887 -0.0187653139 0.0662518439
| 14> O 1.4276976441 1.0673165891 0.1374754717
| 15> O 1.2114219258 -0.8815272343 -0.7243882918
| 16> H -2.9044958469 0.4391125516 -1.091994991
| 17> H -2.197592814 1.4593629605 0.160078455
| 18> H -1.2531560799 1.0234075593 -1.2640570923
| 19> H -1.2797932378 -1.3751463842 -0.5512018042
| 20> H -2.253721463 -0.9420492442 0.8604526535
| 21> H -0.3380460916 0.5638876275 1.6268732888
| 22> H 0.0547268862 -1.1883872959 1.5504769764
| 23> *
| 24> 
| 25>                          ****END OF INPUT****
================================================================================

                       ****************************
                       * Single Point Calculation *
                       ****************************

---------------------------------
CARTESIAN COORDINATES (ANGSTROEM)
---------------------------------
  C     -1.990502    0.661950   -0.549295
  C     -1.490336   -0.584358    0.170851
  C     -0.217153   -0.301535    0.974695
  N      0.888439   -0.018765    0.066252
  O      1.427698    1.067317    0.137475
  O      1.211422   -0.881527   -0.724388
  H     -2.904496    0.439113   -1.091995
  H     -2.197593    1.459363    0.160078
  H     -1.253156    1.023408   -1.264057
  H     -1.279793   -1.375146   -0.551202
  H     -2.253721   -0.942049    0.860453
  H     -0.338046    0.563888    1.626873
  H      0.054727   -1.188387    1.550477

----------------------------
CARTESIAN COORDINATES (A.U.)
----------------------------
  NO LB      ZA    FRAG     MASS         X           Y           Z
   0 C     6.0000    0    12.011   -3.761504    1.250905   -1.038018
   1 C     6.0000    0    12.011   -2.816327   -1.104276    0.322861
   2 C     6.0000    0    12.011   -0.410359   -0.569818    1.841907
   3 N     7.0000    0    14.007    1.678907   -0.035461    0.125198
   4 O     8.0000    0    15.999    2.697958    2.016936    0.259791
   5 O     8.0000    0    15.999    2.289256   -1.665845   -1.368895
   6 H     1.0000    0     1.008   -5.488702    0.829802   -2.063571
   7 H     1.0000    0     1.008   -4.152849    2.757796    0.302504
   8 H     1.0000    0     1.008   -2.368122    1.933960   -2.388722
   9 H     1.0000    0     1.008   -2.418459   -2.598650   -1.041620
  10 H     1.0000    0     1.008   -4.258916   -1.780215    1.626020
  11 H     1.0000    0     1.008   -0.638815    1.065593    3.074345
  12 H     1.0000    0     1.008    0.103419   -2.245727    2.929977

--------------------------------
INTERNAL COORDINATES (ANGSTROEM)
--------------------------------
 C      0   0   0     0.000000000000     0.00000000     0.00000000
 C      1   0   0     1.523830882250     0.00000000     0.00000000
 C      2   1   0     1.532041269168   111.70010855     0.00000000
 N      3   2   1     1.458616400998   109.81043571   292.13799082
 O      4   3   2     1.214679585221   118.25012168   119.20285283
 O      4   3   2     1.213996650956   118.00208905   299.64959929
 H      1   2   3     1.086077376704   110.15496843   181.27461019
 H      1   2   3     1.087181943831   110.73524905   301.21748049
 H      1   2   3     1.088675635194   111.07056817    61.58324145
 H      2   1   3     1.091345484337   110.07704990   239.14894792
 H      2   1   3     1.089151687258   109.74097607   119.88787313
 H      3   2   1     1.090370267776   111.60525238    51.39359240
 H      3   2   1     1.091764693862   109.49399257   174.58267600

---------------------------
INTERNAL COORDINATES (A.U.)
---------------------------
 C      0   0   0     0.000000000000     0.00000000     0.00000000
 C      1   0   0     2.879623041865     0.00000000     0.00000000
 C      2   1   0     2.895138424592   111.70010855     0.00000000
 N      3   2   1     2.756385532332   109.81043571   292.13799082
 O      4   3   2     2.295411756533   118.25012168   119.20285283
 O      4   3   2     2.294121197805   118.00208905   299.64959929
 H      1   2   3     2.052388802219   110.15496843   181.27461019
 H      1   2   3     2.054476131585   110.73524905   301.21748049
 H      1   2   3     2.057298799190   111.07056817    61.58324145
 H      2   1   3     2.062344082889   110.07704990   239.14894792
 H      2   1   3     2.058198407217   109.74097607   119.88787313
 H      3   2   1     2.060501190667   111.60525238    51.39359240
 H      3   2   1     2.063136274084   109.49399257   174.58267600

---------------------
BASIS SET INFORMATION
---------------------
There are 4 groups of distinct atoms

 Group   1 Type C   : 11s6p1d contracted to 5s3p1d pattern {62111/411/1}
 Group   2 Type N   : 11s6p2d contracted to 5s3p2d pattern {62111/411/11}
 Group   3 Type O   : 11s6p2d contracted to 5s3p2d pattern {62111/411/11}
 Group   4 Type H   : 4s1p contracted to 2s1p pattern {31/1}

Atom   0C    basis set group =>   1
Atom   1C    basis set group =>   1
Atom   2C    basis set group =>   1
Atom   3N    basis set group =>   2
Atom   4O    basis set group =>   3
Atom   5O    basis set group =>   3
Atom   6H    basis set group =>   4
Atom   7H    basis set group =>   4
Atom   8H    basis set group =>   4
Atom   9H    basis set group =>   4
Atom  10H    basis set group =>   4
Atom  11H    basis set group =>   4
Atom  12H    basis set group =>   4
---------------------------------
AUXILIARY/J BASIS SET INFORMATION
---------------------------------
There are 4 groups of distinct atoms

 Group   1 Type C   : 12s5p4d2f1g contracted to 6s4p3d1f1g pattern {711111/2111/211/2/1}
 Group   2 Type N   : 12s5p4d2f1g contracted to 6s4p3d1f1g pattern {711111/2111/211/2/1}
 Group   3 Type O   : 12s5p4d2f1g contracted to 6s4p3d1f1g pattern {711111/2111/211/2/1}
 Group   4 Type H   : 5s2p1d contracted to 3s1p1d pattern {311/2/1}

Atom   0C    basis set group =>   1
Atom   1C    basis set group =>   1
Atom   2C    basis set group =>   1
Atom   3N    basis set group =>   2
Atom   4O    basis set group =>   3
Atom   5O    basis set group =>   3
Atom   6H    basis set group =>   4
Atom   7H    basis set group =>   4
Atom   8H    basis set group =>   4
Atom   9H    basis set group =>   4
Atom  10H    basis set group =>   4
Atom  11H    basis set group =>   4
Atom  12H    basis set group =>   4

Checking for AutoStart:
The File: sp_solv.gbw exists
Trying to determine its content:
     ... Fine, the file contains calculation information
     ... Fine, the calculation information was read
     ... Fine, the file contains a basis set
     ... Fine, the basis set was read
     ... Fine, the file contains a geometry
     ... Fine, the geometry was read
     ... Fine, the file contains a set of orbitals
     ... Fine, the orbitals can be read
     => possible old guess file was deleted
     => GBW file was renamed to GES file
     => GES file is set as startup file
     => Guess is set to MORead
     ... now leaving AutoStart

------------------------------------------------------------------------------
                             ORCA STARTUP CALCULATIONS
                           -- RI-GTO INTEGRALS CHOSEN --
------------------------------------------------------------------------------
------------------------------------------------------------------------------
                   ___                                                        
                  /   \      - P O W E R E D   B Y -                         
                 /     \                                                     
                 |  |  |   _    _      __       _____    __    __             
                 |  |  |  | |  | |    /  \     |  _  \  |  |  /  |          
                  \  \/   | |  | |   /    \    | | | |  |  | /  /          
                 / \  \   | |__| |  /  /\  \   | |_| |  |  |/  /          
                |  |  |   |  __  | /  /__\  \  |    /   |      \           
                |  |  |   | |  | | |   __   |  |    \   |  |\   \          
                \     /   | |  | | |  |  |  |  | |\  \  |  | \   \       
                 \___/    |_|  |_| |__|  |__|  |_| \__\ |__|  \__/        
                                                                              
                      - O R C A' S   B I G   F R I E N D -                    
                                      &                                       
                       - I N T E G R A L  F E E D E R -                       
                                                                              
 v1 FN, 2020, v2 2021, v3 2022-2024                                           
------------------------------------------------------------------------------


----------------------
SHARK INTEGRAL PACKAGE
----------------------

Number of atoms                             ...     13
Number of basis functions                   ...    164
Number of shells                            ...     78
Maximum angular momentum                    ...      2
Integral batch strategy                     ... SHARK/LIBINT Hybrid
RI-J (if used) integral strategy            ... SPLIT-RIJ (Revised 2003 algorithm where possible)
Printlevel                                  ...      1
Contraction scheme used                     ... SEGMENTED contraction
Prescreening option                         ... SCHWARTZ
   Thresh                                   ... 1.000e-10
   Tcut                                     ... 1.000e-11
   Tpresel                                  ... 1.000e-11 
Coulomb Range Separation                    ... NOT USED
Exchange Range Separation                   ... NOT USED
Multipole approximations                    ... NOT USED
Finite Nucleus Model                        ... NOT USED
CABS basis                                  ... NOT available
Auxiliary Coulomb fitting basis             ... AVAILABLE
   # of basis functions in Aux-J            ...    371
   # of shells in Aux-J                     ...    125
   Maximum angular momentum in Aux-J        ...      4
Auxiliary J/K fitting basis                 ... NOT available
Auxiliary Correlation fitting basis         ... NOT available
Auxiliary 'external' fitting basis          ... NOT available

Checking pre-screening integrals            ... done (  0.0 sec) Dimension = 78
Check shell pair data                       ... done (  0.0 sec)
Shell pair information
Shell pair cut-off parameter TPreSel        ...   1.0e-11
Total number of shell pairs                 ...      3081
Shell pairs after pre-screening             ...      2918
Total number of primitive shell pairs       ...     10884
Primitive shell pairs kept                  ...      7709
          la=0 lb=0:    911 shell pairs
          la=1 lb=0:   1043 shell pairs
          la=1 lb=1:    317 shell pairs
          la=2 lb=0:    381 shell pairs
          la=2 lb=1:    221 shell pairs
          la=2 lb=2:     45 shell pairs

Calculating one electron integrals          ... done (  0.0 sec)
Calculating RI/J V-Matrix + Cholesky decomp.... done (  0.1 sec)
Calculating Nuclear repulsion               ... done (  0.0 sec) ENN=    252.421292535396 Eh

Diagonalization of the overlap matrix:
Smallest eigenvalue                        ... 2.426e-04
Time for diagonalization                   ...    0.004 sec
Threshold for overlap eigenvalues          ... 1.000e-07
Number of eigenvalues below threshold      ... 0
Time for construction of square roots      ...    0.020 sec
Total time needed                          ...    0.037 sec

-------------------
DFT GRID GENERATION
-------------------

General Integration Accuracy     IntAcc      ... 4.388
Radial Grid Type                 RadialGrid  ... OptM3 with GC (2021)
Angular Grid (max. ang.)         AngularGrid ... 4 (Lebedev-302)
Angular grid pruning method      GridPruning ... 4 (adaptive)
Weight generation scheme         WeightScheme... mBecke (2022)
Basis function cutoff            BFCut       ... 1.0000e-10
Integration weight cutoff        WCut        ... 1.0000e-14
Partially contracted basis set               ... off
Rotationally invariant grid construction     ... off
Angular grids for H and He will be reduced by one unit
Diffuse basis detected: some atoms will have their outermost
                        angular grid increased by 1.

Total number of grid points                  ...    59493
Total number of batches                      ...      937
Average number of points per batch           ...       63
Average number of grid points per atom       ...     4576
Initializing property integral containers    ... done (  0.0 sec)

SHARK setup successfully completed in   1.4 seconds

Maximum memory used throughout the entire STARTUP-calculation: 27.0 MB
-------------------------------------------------------------------------------
                                 ORCA GUESS
                   Start orbitals & Density for SCF / CASSCF
-------------------------------------------------------------------------------

------------
SCF SETTINGS
------------
Hamiltonian:
 Density Functional     Method          .... DFT(GTOs)
  Functional kind                       .... Exchange
  Functional name                       .... Re-regularized SCAN exchange by Furness et al
  Functional family                     .... MGGA
  Functional refs                              
    [ 0] J. W. Furness, A. D. Kaplan, J. Ning, J. P. Perdew, and J. Sun.,  J. Phys. Chem. Lett. 11, 8208-8215 (2020), doi: 10.1021/acs.jpclett.0c02405
    [ 1] J. W. Furness, A. D. Kaplan, J. Ning, J. P. Perdew, and J. Sun.,  J. Phys. Chem. Lett. 11, 9248-9248 (2020), doi: 10.1021/acs.jpclett.0c03077
  Functional external parameters        .... 6
    Parameter  0 _c1        =  6.670000e-01 : c1 parameter        
    Parameter  1 _c2        =  8.000000e-01 : c2 parameter        
    Parameter  2 _d         =  1.240000e+00 : d parameter         
    Parameter  3 _k1        =  6.500000e-02 : k1 parameter        
    Parameter  4 _eta       =  1.000000e-03 : eta parameter       
    Parameter  5 _dp2       =  3.610000e-01 : dp2 parameter       
  Functional kind                       .... Correlation
  Functional name                       .... Re-regularized SCAN correlation by Furness et al
  Functional family                     .... MGGA
  Functional refs                              
    [ 0] J. W. Furness, A. D. Kaplan, J. Ning, J. P. Perdew, and J. Sun.,  J. Phys. Chem. Lett. 11, 8208-8215 (2020), doi: 10.1021/acs.jpclett.0c02405
    [ 1] J. W. Furness, A. D. Kaplan, J. Ning, J. P. Perdew, and J. Sun.,  J. Phys. Chem. Lett. 11, 9248-9248 (2020), doi: 10.1021/acs.jpclett.0c03077
  Functional external parameters        .... 1
    Parameter  0 _eta       =  1.000000e-03 : Regularization parameter
 Gradients option       PostSCFGGA      .... off
 RI-approximation to the Coulomb term is turned on
   Number of AuxJ basis functions       .... 371


General Settings:
 Integral files         IntName         .... sp_solv
 Hartree-Fock type      HFTyp           .... RHF
 Total Charge           Charge          ....    0
 Multiplicity           Mult            ....    1
 Number of Electrons    NEL             ....   48
 Basis Dimension        Dim             ....  164
 Nuclear Repulsion      ENuc            ....    252.4212925354 Eh

Convergence Acceleration:
 AO-DIIS                CNVDIIS         .... on
   Start iteration      DIISMaxIt       ....    12
   Startup error        DIISStart       ....  0.200000
   # of expansion vecs  DIISMaxEq       ....     5
   Bias factor          DIISBfac        ....   1.050
   Max. coefficient     DIISMaxC        ....  10.000
 MO-DIIS                CNVKDIIS        .... off
 Trust-Rad. Augm. Hess. CNVTRAH         .... auto
   Auto Start mean grad. ratio tolernc. ....  1.125000
   Auto Start start iteration           ....     1
   Auto Start num. interpolation iter.  ....    10
   Max. Number of Micro iterations      ....    24
   Max. Number of Macro iterations      .... Maxiter - #DIIS iter
   Number of Davidson start vectors     ....     2
   Converg. threshold    (grad. norm)   ....   3.330e-04
   Grad. Scal. Fac. for Micro threshold ....   0.100
   Minimum threshold for Micro iter.    ....   1.000e-02
   NR start threshold (gradient norm)   ....   1.000e-04
   Initial trust radius                 ....   0.400
   Minimum AH scaling param. (alpha)    ....   1.000
   Maximum AH scaling param. (alpha)    .... 1000.000
   Quad. conv. algorithm                .... NR
   White noise on init. David. guess    .... on
   Maximum white noise                  ....   0.010
   Pseudo random numbers                .... off
   Inactive MOs                         .... canonical
   Orbital update algorithm             .... Taylor
   Preconditioner                       .... Diag
   Full preconditioner red. dimension   ....   250
   COSX micro iterations for RIJONX calc.... off
 SOSCF                  CNVSOSCF        .... on
   Start iteration      SOSCFMaxIt      ....   150
   Startup grad/error   SOSCFStart      ....  0.003300
   Hessian update       SOSCFHessUp     .... L-BFGS
 Level Shifting         CNVShift        .... on
   Level shift para.    LevelShift      ....    0.2500
   Turn off err/grad.   ShiftErr        ....    0.0010
 Zerner damping         CNVZerner       .... off
 Static damping         CNVDamp         .... on
   Fraction old density DampFac         ....    0.7000
   Max. Damping (<1)    DampMax         ....    0.9800
   Min. Damping (>=0)   DampMin         ....    0.0000
   Turn off err/grad.   DampErr         ....    0.1000

SCF Procedure:
 Maximum # iterations   MaxIter         ....   125
 SCF integral mode      SCFMode         .... Direct
   Integral package                     .... SHARK and LIBINT hybrid scheme
 Reset frequency        DirectResetFreq ....    20
 Integral Threshold     Thresh          ....  1.000e-10 Eh
 Primitive CutOff       TCut            ....  1.000e-11 Eh

Convergence Tolerance:
 Convergence Check Mode ConvCheckMode   .... Total+1el-Energy
 Convergence forced     ConvForced      .... 0
 Energy Change          TolE            ....  1.000e-06 Eh
 1-El. energy change                    ....  1.000e-03 Eh
 Orbital Gradient       TolG            ....  3.330e-04
 Orbital Rotation angle TolX            ....  3.330e-04
 DIIS Error             TolErr          ....  1.000e-06

---------------------
INITIAL GUESS: MOREAD
---------------------
Guess MOs are being read from file: sp_solv.ges
Input Geometry matches current geometry (good)
Atom 0: N(Shells)= 9 and 6 - projection required
Input basis set needs projection
NBasis(read)= 98
NBasis(calc)= 164
Basis set overlap was calculated
Using GuessMode=FMatrix for the initial guess
C*T matrix was formed
Effective Fockian was calculated
Effective Fockian was diagonalized
Initial density was built
                      ------------------
                      INITIAL GUESS DONE (   0.1 sec)
                      ------------------
             **** ENERGY FILE WAS UPDATED (sp_solv.en.tmp) ****
Finished Guess after   0.4 sec
Maximum memory used throughout the entire GUESS-calculation: 11.2 MB

-------------------------------------------------------------------------------------------
                                      ORCA LEAN-SCF
                              memory conserving SCF solver
-------------------------------------------------------------------------------------------

--------------------
CPCM SOLVATION MODEL
--------------------
CPCM parameters:
  Epsilon                                         ...      78.3550
  Refrac                                          ...       1.3328
  Rsolv                                           ...       1.3000
  Surface type                                    ... GAUSSIAN VDW
  Discretization scheme                           ... Constant charge density
    Threshold for H atoms                         ...       5.0000 (charges/Ang^2)
    Threshold for non-H atoms                     ...       5.0000 (charges/Ang^2)
  Epsilon function type                           ...         CPCM
Solvent:                                          ... WATER
SMD-CDS solvent descriptors:
  Soln                                            ...       1.3328
  Soln25                                          ...       1.3323
  Sola                                            ...       0.0000
  Solb                                            ...       0.0000
  Solg                                            ...       0.0000
  Solc                                            ...       0.0000
  Solh                                            ...       0.0000
Radii:
  Scheme                                          ... Element-dependent radii
  Radius for C  used is    3.4960 Bohr (=   1.8500 Ang.)
  Radius for N  used is    3.5716 Bohr (=   1.8900 Ang.)
  Radius for O  used is    2.8724 Bohr (=   1.5200 Ang.)
  Radius for H  used is    2.2677 Bohr (=   1.2000 Ang.)
Calculating surface                               ...        done! (  0.0s)
Cavity surface points                             ...         1004
Cavity Volume                                     ...     610.6488
Cavity Surface-area                               ...     417.0528
Calculating surface distance matrix               ...        done! (  0.0s)
Performing Cholesky decomposition & store         ...        done! (  0.1s)
Overall time for CPCM initialization              ...                 0.1s

----------------------------------------D-I-I-S--------------------------------------------
Iteration    Energy (Eh)           Delta-E    RMSDP     MaxDP     DIISErr   Damp  Time(sec)
-------------------------------------------------------------------------------------------
               ***  Starting incremental Fock matrix formation  ***
    1    -323.4357692897357310     0.00e+00  5.62e-03  1.89e-01  6.38e-01  0.700   2.6
    2    -323.4854771207518525    -4.97e-02  4.66e-03  1.23e-01  4.48e-01  0.700   2.5
    3    -323.5207290685070802    -3.53e-02  3.45e-03  8.94e-02  3.14e-01  0.700   2.0
    4    -323.5455386569349230    -2.48e-02  2.49e-03  6.35e-02  2.20e-01  0.700   2.7
                               ***Turning on AO-DIIS***
    5    -323.5629702110585413    -1.74e-02  1.81e-03  4.51e-02  1.54e-01  0.700   2.1
    6    -323.5752004673935289    -1.22e-02  1.29e-03  3.19e-02  1.08e-01  0.700   1.9
    7    -323.5837866205931732    -8.59e-03  9.13e-04  2.24e-02  7.54e-02  0.700   2.2
    8    -323.5898063237553970    -6.02e-03  2.14e-03  5.23e-02  5.29e-02  0.000   2.5
                              *** Initializing SOSCF ***
---------------------------------------S-O-S-C-F--------------------------------------
Iteration    Energy (Eh)           Delta-E    RMSDP     MaxDP     MaxGrad    Time(sec)
--------------------------------------------------------------------------------------
    9    -323.6038863791385438    -1.41e-02  2.30e-05  8.94e-04  1.88e-04     2.2
               *** Restarting incremental Fock matrix formation ***
   10    -323.6038865624998380    -1.83e-07  1.34e-05  4.98e-04  1.04e-04     2.2
   11    -323.6038863424383862     2.20e-07  5.20e-06  1.37e-04  2.24e-04     1.9
                 **** Energy Check signals convergence ****

               *****************************************************
               *                     SUCCESS                       *
               *           SCF CONVERGED AFTER  11 CYCLES          *
               *****************************************************


SMD CDS free energy correction energy :                 5.28525     Kcal/mol
Total Energy after SMD CDS correction =              -323.595463762 Eh
             **** ENERGY FILE WAS UPDATED (sp_solv.en.tmp) ****

----------------
TOTAL SCF ENERGY
----------------

Total Energy       :       -323.59546376249261 Eh           -8805.48023 eV

Components:
Nuclear Repulsion  :        252.42129253539602 Eh            6868.73257 eV
Electronic Energy  :       -576.00856384478402 Eh          -15673.98987 eV
One Electron Energy:       -939.92204014873300 Eh          -25576.57900 eV
Two Electron Energy:        363.91347630394898 Eh            9902.58913 eV
CPCM Dielectric    :         -0.01661503305038 Eh              -0.45212 eV
SMD CDS (Gcds)     :          0.00842257994579 Eh               0.22919 eV

Virial components:
Potential Energy   :       -646.04205598420947 Eh          -17579.69808 eV
Kinetic Energy     :        322.44659222171686 Eh            8774.21785 eV
Virial Ratio       :          2.00356298242403

DFT components:
N(Alpha)           :       23.999972035337 electrons
N(Beta)            :       23.999972035337 electrons
N(Total)           :       47.999944070673 electrons
E(X)               :      -41.269761053074 Eh       
E(C)               :       -1.561842025000 Eh       
E(XC)              :      -42.831603078074 Eh       

CPCM Solvation Model Properties:
Surface-charge          :         -0.03778527075287
Corrected charge        :         -0.00000000000000
Outlying charge corr.   :          0.00012709477820 Eh               0.00346 eV
Free-energy (cav+disp)  :          0.00842257994579 Eh               0.22919 eV

---------------
SCF CONVERGENCE
---------------

  Last Energy change         ...   -2.2006e-07  Tolerance :   1.0000e-06
  Last MAX-Density change    ...    1.3681e-04  Tolerance :   1.0000e-05
  Last RMS-Density change    ...    5.2004e-06  Tolerance :   1.0000e-06
  Last DIIS Error            ...    1.8769e-04  Tolerance :   1.0000e-06
  Last Orbital Gradient      ...    2.2357e-04  Tolerance :   3.3300e-04
  Last Orbital Rotation      ...    1.8529e-04  Tolerance :   3.3300e-04


----------------
ORBITAL ENERGIES
----------------

  NO   OCC          E(Eh)            E(eV) 
   0   2.0000     -18.996642      -516.9249 
   1   2.0000     -18.995495      -516.8937 
   2   2.0000     -14.398012      -391.7898 
   3   2.0000     -10.080136      -274.2945 
   4   2.0000     -10.039516      -273.1891 
   5   2.0000     -10.015839      -272.5448 
   6   2.0000      -1.216052       -33.0905 
   7   2.0000      -1.038332       -28.2544 
   8   2.0000      -0.806798       -21.9541 
   9   2.0000      -0.712736       -19.3945 
  10   2.0000      -0.610560       -16.6142 
  11   2.0000      -0.559077       -15.2133 
  12   2.0000      -0.528164       -14.3721 
  13   2.0000      -0.506544       -13.7838 
  14   2.0000      -0.494183       -13.4474 
  15   2.0000      -0.424125       -11.5410 
  16   2.0000      -0.405219       -11.0266 
  17   2.0000      -0.381139       -10.3713 
  18   2.0000      -0.329175        -8.9573 
  19   2.0000      -0.321182        -8.7398 
  20   2.0000      -0.315255        -8.5785 
  21   2.0000      -0.303884        -8.2691 
  22   2.0000      -0.286483        -7.7956 
  23   2.0000      -0.269334        -7.3289 
  24   0.0000      -0.109805        -2.9880 
  25   0.0000       0.093177         2.5355 
  26   0.0000       0.105870         2.8809 
  27   0.0000       0.126274         3.4361 
  28   0.0000       0.131295         3.5727 
  29   0.0000       0.144637         3.9358 
  30   0.0000       0.157487         4.2854 
  31   0.0000       0.170870         4.6496 
  32   0.0000       0.195136         5.3099 
  33   0.0000       0.197665         5.3787 
  34   0.0000       0.209878         5.7111 
*Only the first 10 virtual orbitals were printed.

                    ********************************
                    * MULLIKEN POPULATION ANALYSIS *
                    ********************************

-----------------------
MULLIKEN ATOMIC CHARGES
-----------------------
   0 C :   -0.524385
   1 C :   -0.224044
   2 C :   -0.279694
   3 N :    0.256743
   4 O :   -0.248555
   5 O :   -0.246612
   6 H :    0.167654
   7 H :    0.164456
   8 H :    0.164981
   9 H :    0.168192
  10 H :    0.176102
  11 H :    0.210294
  12 H :    0.214869
Sum of atomic charges:    0.0000000

--------------------------------
MULLIKEN REDUCED ORBITAL CHARGES
--------------------------------
  0 C s       :     3.341916  s :     3.341916
      pz      :     1.067899  p :     3.155740
      px      :     1.103710
      py      :     0.984131
      dz2     :     0.001633  d :     0.026728
      dxz     :     0.007069
      dyz     :     0.008163
      dx2y2   :     0.005697
      dxy     :     0.004166

  1 C s       :     3.212191  s :     3.212191
      pz      :     1.032890  p :     2.975640
      px      :     0.953883
      py      :     0.988866
      dz2     :     0.002818  d :     0.036213
      dxz     :     0.009572
      dyz     :     0.009757
      dx2y2   :     0.007800
      dxy     :     0.006266

  2 C s       :     3.315773  s :     3.315773
      pz      :     0.918680  p :     2.922161
      px      :     0.854093
      py      :     1.149388
      dz2     :     0.003585  d :     0.041759
      dxz     :     0.014281
      dyz     :     0.008811
      dx2y2   :     0.009604
      dxy     :     0.005477

  3 N s       :     3.271341  s :     3.271341
      pz      :     1.004535  p :     2.948657
      px      :     1.052626
      py      :     0.891495
      dz2     :     0.072200  d :     0.523260
      dxz     :     0.071705
      dyz     :     0.138100
      dx2y2   :     0.129423
      dxy     :     0.111830

  4 O s       :     3.852643  s :     3.852643
      pz      :     1.625505  p :     4.355455
      px      :     1.520709
      py      :     1.209241
      dz2     :     0.003154  d :     0.040458
      dxz     :     0.003035
      dyz     :     0.010249
      dx2y2   :     0.010091
      dxy     :     0.013929

  5 O s       :     3.855986  s :     3.855986
      pz      :     1.366496  p :     4.352105
      px      :     1.594592
      py      :     1.391017
      dz2     :     0.009692  d :     0.038521
      dxz     :     0.006821
      dyz     :     0.009201
      dx2y2   :     0.003020
      dxy     :     0.009786

  6 H s       :     0.813978  s :     0.813978
      pz      :     0.005575  p :     0.018368
      px      :     0.008967
      py      :     0.003826

  7 H s       :     0.817318  s :     0.817318
      pz      :     0.006642  p :     0.018226
      px      :     0.003891
      py      :     0.007694

  8 H s       :     0.816751  s :     0.816751
      pz      :     0.006912  p :     0.018269
      px      :     0.006859
      py      :     0.004498

  9 H s       :     0.813722  s :     0.813722
      pz      :     0.006897  p :     0.018086
      px      :     0.003581
      py      :     0.007609

 10 H s       :     0.805807  s :     0.805807
      pz      :     0.006391  p :     0.018092
      px      :     0.007322
      py      :     0.004378

 11 H s       :     0.771876  s :     0.771876
      pz      :     0.006274  p :     0.017830
      px      :     0.002837
      py      :     0.008719

 12 H s       :     0.767035  s :     0.767035
      pz      :     0.005683  p :     0.018096
      px      :     0.003260
      py      :     0.009153


------------------------
MULLIKEN OVERLAP CHARGES
------------------------
B(  0-C ,  1-C ) :   0.4893 B(  0-C ,  2-C ) :  -0.2085 B(  0-C ,  6-H ) :   0.7937 
B(  0-C ,  7-H ) :   0.8329 B(  0-C ,  8-H ) :   0.8577 B(  0-C ,  9-H ) :  -0.0699 
B(  1-C ,  2-C ) :   0.4737 B(  1-C ,  3-N ) :  -0.0622 B(  1-C ,  6-H ) :  -0.0718 
B(  1-C ,  7-H ) :  -0.0851 B(  1-C ,  8-H ) :  -0.0879 B(  1-C ,  9-H ) :   0.8531 
B(  1-C , 10-H ) :   0.8261 B(  1-C , 11-H ) :  -0.0565 B(  2-C ,  3-N ) :   0.3711 
B(  2-C ,  9-H ) :  -0.0630 B(  2-C , 10-H ) :  -0.0974 B(  2-C , 11-H ) :   0.8525 
B(  2-C , 12-H ) :   0.7580 B(  3-N ,  4-O ) :   0.9387 B(  3-N ,  5-O ) :   0.9559 
B(  3-N , 11-H ) :  -0.0955 B(  4-O ,  5-O ) :  -0.1104 


                     *******************************
                     * LOEWDIN POPULATION ANALYSIS *
                     *******************************

----------------------
LOEWDIN ATOMIC CHARGES
----------------------
   0 C :   -0.419604
   1 C :   -0.257816
   2 C :    0.039103
   3 N :   -0.540084
   4 O :   -0.036045
   5 O :   -0.041590
   6 H :    0.159938
   7 H :    0.159265
   8 H :    0.158158
   9 H :    0.173894
  10 H :    0.171865
  11 H :    0.211216
  12 H :    0.221700

-------------------------------
LOEWDIN REDUCED ORBITAL CHARGES
-------------------------------
  0 C s       :     2.971465  s :     2.971465
      pz      :     1.141247  p :     3.385960
      px      :     1.144530
      py      :     1.100183
      dz2     :     0.003059  d :     0.062179
      dxz     :     0.017126
      dyz     :     0.019534
      dx2y2   :     0.013183
      dxy     :     0.009277

  1 C s       :     2.934785  s :     2.934785
      pz      :     1.108282  p :     3.245834
      px      :     1.034069
      py      :     1.103483
      dz2     :     0.004734  d :     0.077197
      dxz     :     0.021993
      dyz     :     0.022059
      dx2y2   :     0.016007
      dxy     :     0.012404

  2 C s       :     2.855273  s :     2.855273
      pz      :     0.980982  p :     3.014782
      px      :     0.931168
      py      :     1.102632
      dz2     :     0.005949  d :     0.090843
      dxz     :     0.030641
      dyz     :     0.022072
      dx2y2   :     0.021937
      dxy     :     0.010244

  3 N s       :     2.958342  s :     2.958342
      pz      :     1.088959  p :     3.302113
      px      :     1.098669
      py      :     1.114486
      dz2     :     0.204189  d :     1.279629
      dxz     :     0.185504
      dyz     :     0.306921
      dx2y2   :     0.300124
      dxy     :     0.282891

  4 O s       :     3.462581  s :     3.462581
      pz      :     1.535976  p :     4.324353
      px      :     1.466918
      py      :     1.321459
      dz2     :     0.025824  d :     0.249112
      dxz     :     0.022321
      dyz     :     0.059198
      dx2y2   :     0.066828
      dxy     :     0.074941

  5 O s       :     3.458203  s :     3.458203
      pz      :     1.368435  p :     4.327479
      px      :     1.516040
      py      :     1.443004
      dz2     :     0.053494  d :     0.255909
      dxz     :     0.043396
      dyz     :     0.065986
      dx2y2   :     0.048250
      dxy     :     0.044784

  6 H s       :     0.795926  s :     0.795926
      pz      :     0.013188  p :     0.044135
      px      :     0.022173
      py      :     0.008775

  7 H s       :     0.796790  s :     0.796790
      pz      :     0.016339  p :     0.043945
      px      :     0.008830
      py      :     0.018775

  8 H s       :     0.797801  s :     0.797801
      pz      :     0.016782  p :     0.044041
      px      :     0.017026
      py      :     0.010233

  9 H s       :     0.782119  s :     0.782119
      pz      :     0.017248  p :     0.043987
      px      :     0.007944
      py      :     0.018796

 10 H s       :     0.783828  s :     0.783828
      pz      :     0.015942  p :     0.044307
      px      :     0.017934
      py      :     0.010431

 11 H s       :     0.746999  s :     0.746999
      pz      :     0.013945  p :     0.041785
      px      :     0.006037
      py      :     0.021803

 12 H s       :     0.735974  s :     0.735974
      pz      :     0.012213  p :     0.042326
      px      :     0.008090
      py      :     0.022024


---------------------------------
LOEWDIN BOND ORDERS (THRESH 0.050000)
---------------------------------
B(  0-C ,  1-C ) :   1.1420 B(  0-C ,  2-C ) :   0.0671 B(  0-C ,  6-H ) :   0.9249 
B(  0-C ,  7-H ) :   0.9262 B(  0-C ,  8-H ) :   0.9213 B(  1-C ,  2-C ) :   1.0129 
B(  1-C ,  3-N ) :   0.1468 B(  1-C ,  5-O ) :   0.0508 B(  1-C ,  9-H ) :   0.8792 
B(  1-C , 10-H ) :   0.8801 B(  2-C ,  3-N ) :   1.1366 B(  2-C ,  4-O ) :   0.1845 
B(  2-C ,  5-O ) :   0.1814 B(  2-C , 11-H ) :   0.8093 B(  2-C , 12-H ) :   0.7929 
B(  3-N ,  4-O ) :   2.6480 B(  3-N ,  5-O ) :   2.6434 B(  3-N , 11-H ) :   0.0809 
B(  3-N , 12-H ) :   0.0954 B(  4-O ,  5-O ) :   0.5880 

------------------------------------------
LOEWDIN REDUCED ORBITAL POPULATIONS PER MO
-------------------------------------------
THRESHOLD FOR PRINTING IS 0.1%%
                      0         1         2         3         4         5   
                 -18.99664 -18.99550 -14.39801 -10.08014 -10.03952 -10.01584
                   2.00000   2.00000   2.00000   2.00000   2.00000   2.00000
                  --------  --------  --------  --------  --------  --------
 0 C  s               0.0       0.0       0.0       0.0       0.0      99.7
 1 C  s               0.0       0.0       0.0       0.0      99.7       0.0
 2 C  s               0.0       0.0       0.0      99.4       0.0       0.0
 3 N  s               0.0       0.0      99.4       0.0       0.0       0.0
 3 N  dxz             0.0       0.0       0.0       0.2       0.0       0.0
 4 O  s              99.8       0.0       0.0       0.0       0.0       0.0
 5 O  s               0.0      99.8       0.0       0.0       0.0       0.0
 5 O  dyz             0.0       0.0       0.1       0.0       0.0       0.0

                      6         7         8         9        10        11   
                  -1.21605  -1.03833  -0.80680  -0.71274  -0.61056  -0.55908
                   2.00000   2.00000   2.00000   2.00000   2.00000   2.00000
                  --------  --------  --------  --------  --------  --------
 0 C  s               0.0       0.0       3.8      24.3      14.8       4.2
 0 C  pz              0.0       0.0       0.5       0.3       1.1       0.5
 0 C  px              0.1       0.0       0.5       0.1       0.4       0.2
 0 C  py              0.0       0.0       0.9       1.1       2.0       3.4
 1 C  s               0.2       0.0      12.7      17.8       5.8       6.6
 1 C  pz              0.0       0.0       0.3       1.2       4.4       0.0
 1 C  px              0.5       0.0       1.9       1.9       1.8       0.3
 1 C  py              0.0       0.0       0.5       1.5       4.2       3.2
 2 C  s               2.0       0.0      24.0       1.3       5.3       3.4
 2 C  pz              1.4       0.1       1.5       0.6       1.2       3.4
 2 C  px              2.2       0.0       0.4       7.9       5.7       2.6
 2 C  py              0.1       0.7       0.0       0.1       1.5       0.5
 2 C  dxz             0.1       0.0       0.0       0.4       0.3       0.0
 3 N  s              32.5       0.0       2.9       2.9       5.0       3.6
 3 N  pz              1.3       5.8       7.8       4.6       0.4       5.6
 3 N  px              1.8       0.4      13.1       3.2       0.6       0.4
 3 N  py              0.1      29.7       0.7       0.5       0.0       0.6
 3 N  dz2             0.1       0.9       0.0       0.2       0.1       0.0
 3 N  dxz             0.1       0.3       0.7       0.1       0.6       0.5
 3 N  dyz             0.9       1.1       0.6       0.2       0.2       1.0
 3 N  dx2y2           0.8       0.0       1.6       0.0       0.1       1.2
 3 N  dxy             0.2       2.2       0.1       0.0       0.6       0.0
 4 O  s              17.8      25.6       2.8       2.3       5.7       5.8
 4 O  pz              0.1       0.2       0.7       0.5       0.0       2.5
 4 O  px              1.0       0.9       1.1       0.7       1.5       1.4
 4 O  py              6.1       1.9       0.2       0.5       3.4       6.9
 4 O  dz2             0.5       0.1       0.1       0.1       0.1       0.0
 4 O  dxz             0.0       0.0       0.1       0.1       0.0       0.1
 4 O  dyz             0.2       0.3       0.4       0.2       0.0       0.3
 4 O  dx2y2           1.0       0.4       0.1       0.0       0.0       0.1
 4 O  dxy             0.8       0.1       0.8       0.4       0.3       0.1
 5 O  s              17.9      25.3       3.3       1.9       4.4       9.1
 5 O  pz              2.7       1.4       0.7       1.0       2.0       1.9
 5 O  px              0.3       0.6       1.1       0.4       0.5       1.0
 5 O  py              4.3       1.1       0.2       0.0       1.6      10.8
 5 O  dz2             0.0       0.1       0.2       0.3       0.0       0.2
 5 O  dxz             0.1       0.1       0.8       0.2       0.0       0.0
 5 O  dyz             1.6       0.3       0.1       0.1       0.2       0.2
 5 O  dx2y2           0.7       0.4       0.3       0.0       0.0       0.1
 5 O  dxy             0.1       0.0       0.3       0.1       0.1       0.1
 6 H  s               0.0       0.0       0.4       4.2       4.7       1.6
 6 H  px              0.0       0.0       0.0       0.3       0.3       0.1
 7 H  s               0.0       0.0       0.4       4.0       4.3       2.2
 7 H  pz              0.0       0.0       0.0       0.1       0.2       0.1
 7 H  py              0.0       0.0       0.0       0.2       0.2       0.1
 8 H  s               0.0       0.0       0.5       3.9       4.7       1.9
 8 H  pz              0.0       0.0       0.0       0.2       0.1       0.1
 8 H  px              0.0       0.0       0.0       0.2       0.2       0.1
 9 H  s               0.0       0.0       1.5       2.8       1.8       3.3
 9 H  pz              0.0       0.0       0.1       0.1       0.1       0.1
 9 H  py              0.0       0.0       0.1       0.1       0.0       0.1
10 H  s               0.0       0.0       1.4       3.3       2.5       2.8
10 H  pz              0.0       0.0       0.0       0.1       0.0       0.1
10 H  px              0.0       0.0       0.1       0.1       0.2       0.1
11 H  s               0.1       0.0       3.2       0.2       1.4       2.9
11 H  pz              0.0       0.0       0.1       0.0       0.0       0.0
11 H  py              0.0       0.0       0.2       0.0       0.1       0.1
12 H  s               0.1       0.0       3.3       0.3       2.3       2.0
12 H  pz              0.0       0.0       0.1       0.0       0.0       0.0
12 H  py              0.0       0.0       0.2       0.0       0.1       0.1

                     12        13        14        15        16        17   
                  -0.52816  -0.50654  -0.49418  -0.42413  -0.40522  -0.38114
                   2.00000   2.00000   2.00000   2.00000   2.00000   2.00000
                  --------  --------  --------  --------  --------  --------
 0 C  s               0.2       0.0       0.3       0.4       0.1       0.1
 0 C  pz              0.0       0.3       0.0      14.8       0.7      10.4
 0 C  px              1.0       0.0       0.0       0.1      25.2       0.0
 0 C  py              0.0       0.5       3.0       0.3       0.2      16.0
 1 C  s               0.2       0.3       2.1       0.5       0.2       0.0
 1 C  pz              0.9       2.2       3.2       4.3       4.2      12.0
 1 C  px              1.7       0.1       1.7       4.2      18.9       1.8
 1 C  py              0.2       1.4       2.2       8.6       3.3       0.2
 1 C  dxz             0.0       0.0       0.1       0.0       0.1       0.0
 2 C  s               0.3       1.6       3.3       0.4       0.1       0.2
 2 C  pz              6.8       4.8       5.0       0.7       3.5       7.4
 2 C  px              0.1       2.6       2.9       1.4       3.3       1.1
 2 C  py              2.3       2.9       0.3      23.0       1.1      12.6
 2 C  dz2             0.1       0.0       0.0       0.0       0.0       0.0
 2 C  dxz             0.0       0.1       0.1       0.0       0.2       0.0
 2 C  dyz             0.0       0.0       0.0       0.2       0.1       0.2
 2 C  dx2y2           0.0       0.1       0.2       0.1       0.0       0.2
 2 C  dxy             0.0       0.0       0.1       0.0       0.0       0.0
 3 N  s               0.2       0.1       0.1       0.1       0.2       0.0
 3 N  pz              8.6       1.6      15.1       0.7       0.4       0.4
 3 N  px             28.0       1.2       0.3       0.1       2.8       0.1
 3 N  py              3.7      13.8       2.4       2.1       0.2       0.6
 3 N  dz2             0.0       1.8       0.0       0.1       0.7       0.8
 3 N  dxz             0.1       1.4       0.4       0.0       0.0       0.2
 3 N  dyz             0.4       0.3       2.3       1.2       0.0       0.3
 3 N  dx2y2           0.5       0.7       0.3       0.0       1.9       0.1
 3 N  dxy             0.0       2.8       0.8       0.8       0.0       0.4
 4 O  s               1.1       9.8       1.2       0.3       0.0       0.1
 4 O  pz              2.5       1.3       6.0       2.5       0.4       0.1
 4 O  px              5.6       7.5       1.7       0.4       3.0       0.1
 4 O  py              8.4      16.7       3.4       1.7       1.2       1.0
 4 O  dxz             0.2       0.0       0.1       0.1       0.0       0.1
 4 O  dyz             0.4       0.1       0.3       0.0       0.0       0.0
 4 O  dx2y2           1.2       0.1       0.0       0.0       0.0       0.0
 4 O  dxy             0.5       0.2       0.0       0.0       0.1       0.0
 5 O  s               1.3       2.7       6.3       0.1       0.0       0.2
 5 O  pz              9.6      10.0       2.6       2.5       0.6       0.0
 5 O  px              7.2       2.9       1.8       0.2       2.5       0.0
 5 O  py              0.2       0.0      17.4       0.1       0.1       2.9
 5 O  dz2             1.0       0.2       0.2       0.0       0.0       0.0
 5 O  dxz             0.2       0.1       0.0       0.0       0.0       0.1
 5 O  dyz             0.2       0.0       0.2       0.0       0.0       0.0
 5 O  dx2y2           0.0       0.2       0.1       0.0       0.1       0.0
 5 O  dxy             0.8       0.0       0.0       0.0       0.1       0.0
 6 H  s               0.2       0.0       0.0       2.2       6.3       2.6
 6 H  pz              0.0       0.0       0.0       0.0       0.2       0.0
 6 H  px              0.0       0.0       0.0       0.1       0.0       0.1
 7 H  s               0.1       0.2       0.9       0.8       0.7      11.0
 7 H  pz              0.0       0.0       0.0       0.0       0.0       0.1
 7 H  px              0.0       0.0       0.0       0.0       0.1       0.0
 7 H  py              0.0       0.0       0.0       0.1       0.0       0.1
 8 H  s               0.1       0.0       0.4       3.4       5.1       0.1
 8 H  pz              0.0       0.0       0.0       0.0       0.2       0.0
 8 H  px              0.0       0.0       0.0       0.1       0.0       0.0
 8 H  py              0.0       0.0       0.0       0.0       0.1       0.1
 9 H  s               0.0       1.4       3.4       3.5       0.4       2.6
 9 H  py              0.0       0.0       0.1       0.0       0.1       0.1
10 H  s               0.8       0.0       0.9       2.0       9.0       0.5
10 H  pz              0.0       0.0       0.1       0.0       0.2       0.0
10 H  py              0.0       0.0       0.0       0.1       0.0       0.0
11 H  s               0.2       5.1       2.9       3.1       0.0      11.3
11 H  pz              0.0       0.1       0.0       0.2       0.0       0.1
11 H  py              0.0       0.2       0.2       0.0       0.0       0.2
12 H  s               2.7       0.2       3.0      11.4       1.7       0.4
12 H  pz              0.0       0.0       0.0       0.2       0.0       0.1
12 H  py              0.1       0.0       0.1       0.1       0.1       0.0

                     18        19        20        21        22        23   
                  -0.32917  -0.32118  -0.31526  -0.30388  -0.28648  -0.26933
                   2.00000   2.00000   2.00000   2.00000   2.00000   2.00000
                  --------  --------  --------  --------  --------  --------
 0 C  s               0.4       0.3       0.0       0.1       0.1       0.0
 0 C  pz              5.4       7.4      14.1       1.2       0.1       0.1
 0 C  px              8.8      18.2       0.5       1.8       0.2       0.1
 0 C  py             16.0       3.6       5.1       1.4       1.3       0.2
 0 C  dxz             0.5       0.2       0.0       0.0       0.0       0.0
 0 C  dyz             0.0       0.1       0.4       0.1       0.0       0.0
 0 C  dx2y2           0.0       0.2       0.2       0.0       0.0       0.0
 0 C  dxy             0.1       0.0       0.1       0.0       0.0       0.0
 1 C  s               0.3       0.1       0.1       0.0       0.0       0.2
 1 C  pz              3.4       4.1      12.1       2.8       0.2       0.0
 1 C  px              2.0      10.2       0.6       1.4       1.5       1.2
 1 C  py             15.1       5.6       4.5       2.6       1.7       0.2
 1 C  dxz             0.4       0.1       0.0       0.0       0.1       0.1
 1 C  dyz             0.0       0.3       0.4       0.2       0.0       0.0
 1 C  dx2y2           0.0       0.2       0.2       0.0       0.0       0.0
 1 C  dxy             0.2       0.1       0.1       0.0       0.1       0.0
 2 C  s               0.6       0.5       0.1       0.0       0.2       0.0
 2 C  pz              2.1       5.5       2.0       0.0       2.7       0.3
 2 C  px              0.2       8.6       1.6       0.0       5.5       0.3
 2 C  py              1.6       3.0       0.7       0.9       0.6       3.1
 2 C  dxz             0.1       0.0       0.0       0.0       0.1       0.1
 2 C  dyz             0.1       0.3       0.1       0.1       0.0       0.1
 2 C  dx2y2           0.0       0.0       0.2       0.0       0.1       0.0
 2 C  dxy             0.1       0.1       0.0       0.0       0.0       0.0
 3 N  s               0.0       0.0       0.0       0.0       0.7       0.0
 3 N  pz              0.1       0.0       0.1       0.0       1.6       0.3
 3 N  px              0.0       0.0       0.1       0.0       2.5       0.1
 3 N  py              0.3       0.0       0.0       0.0       0.4       0.6
 3 N  dz2             0.1       0.3       1.3       2.1       1.0       0.4
 3 N  dxz             0.3       0.0       0.1       1.5       2.6       0.0
 3 N  dyz             0.6       1.2       0.7       1.5       1.5       1.1
 3 N  dx2y2           0.9       1.2       0.2       1.0       4.5       0.0
 3 N  dxy             0.7       0.2       0.8       2.8       0.0       1.6
 4 O  s               0.0       0.0       0.0       0.0       0.6       0.1
 4 O  pz              3.0       2.8       2.7      15.7       7.6      28.4
 4 O  px              3.6       2.8       2.5      11.6      12.3      15.8
 4 O  py              0.9       0.9       0.7       4.3       0.9       6.9
 4 O  dxz             0.0       0.0       0.0       0.1       0.1       0.0
 4 O  dyz             0.0       0.0       0.0       0.1       0.0       0.6
 4 O  dx2y2           0.0       0.0       0.0       0.1       0.0       0.3
 4 O  dxy             0.0       0.0       0.0       0.1       0.1       0.2
 5 O  s               0.1       0.0       0.0       0.0       0.3       0.2
 5 O  pz              1.2       0.0       3.7      15.0      12.1       1.1
 5 O  px              0.6       0.0       4.5      16.6      23.2      12.5
 5 O  py              0.0       0.1       2.4       3.3       9.1      18.6
 5 O  dz2             0.0       0.0       0.0       0.3       0.1       0.2
 5 O  dxz             0.1       0.0       0.0       0.0       0.2       0.1
 5 O  dx2y2           0.0       0.0       0.1       0.0       0.0       0.4
 5 O  dxy             0.0       0.0       0.2       0.0       0.0       0.2
 6 H  s               3.4      11.6       2.1       0.1       0.2       0.1
 6 H  pz              0.2       0.0       0.0       0.0       0.0       0.0
 6 H  px              0.0       0.1       0.1       0.0       0.0       0.0
 6 H  py              0.1       0.2       0.0       0.0       0.0       0.0
 7 H  s               0.3       0.0      12.6       2.3       0.1       0.0
 7 H  px              0.1       0.1       0.0       0.0       0.0       0.0
 8 H  s              13.4       0.5       3.6       1.4       0.6       0.3
 8 H  pz              0.1       0.1       0.0       0.0       0.0       0.0
 9 H  s               1.3       0.4      12.2       4.3       0.0       0.1
 9 H  pz              0.1       0.1       0.0       0.0       0.0       0.0
10 H  s               8.3       0.2       3.0       1.5       2.1       0.7
10 H  px              0.1       0.1       0.1       0.0       0.0       0.0
11 H  s               1.4       0.6       1.9       0.8       0.4       1.9
12 H  s               0.6       7.0       0.1       0.3       0.5       1.0
12 H  py              0.0       0.1       0.0       0.0       0.0       0.0

                     24        25        26        27        28        29   
                  -0.10981   0.09318   0.10587   0.12627   0.13130   0.14464
                   0.00000   0.00000   0.00000   0.00000   0.00000   0.00000
                  --------  --------  --------  --------  --------  --------
 0 C  s               0.0      14.7       0.3       2.2      21.6       0.1
 0 C  pz              0.1       0.8       0.8       0.7       8.3       4.8
 0 C  px              0.0       0.3       0.2       1.9       5.7       1.0
 0 C  py              0.0       1.1       1.6       3.5       8.5       2.2
 0 C  dxz             0.0       0.0       0.2       0.0       0.1       0.3
 0 C  dyz             0.0       0.1       0.1       0.6       0.3       0.2
 0 C  dx2y2           0.0       0.4       0.1       0.0       0.4       0.1
 0 C  dxy             0.0       0.1       0.0       0.4       0.1       0.2
 1 C  s               0.4       8.8       0.6      13.2       3.1       0.5
 1 C  pz              0.6       0.2       0.1       1.0       5.1       5.4
 1 C  px              1.3       0.9       0.4      10.3       3.2       1.6
 1 C  py              0.2       1.2       0.8       4.5      11.3       6.2
 1 C  dz2             0.0       0.0       1.0       0.0       0.1       0.0
 1 C  dxz             0.0       0.3       0.1       0.5       0.0       0.2
 1 C  dyz             0.0       0.1       0.2       0.0       0.9       0.8
 1 C  dx2y2           0.0       0.0       0.2       0.1       0.8       0.6
 1 C  dxy             0.0       0.0       0.2       0.1       0.1       0.1
 2 C  s               0.1      12.3       1.0       3.8       4.5       1.4
 2 C  pz              0.2       2.0      16.9       6.1       1.6       9.2
 2 C  px              0.1       0.9      20.8      16.4       0.1       2.0
 2 C  py              0.2       0.1       1.1       1.1       2.3      14.6
 2 C  dz2             0.3       0.0       0.1       0.1       0.0       0.4
 2 C  dxz             0.1       0.0       3.1       0.8       0.1       0.1
 2 C  dyz             0.3       0.1       0.2       0.0       0.0       2.2
 2 C  dx2y2           0.5       0.1       1.5       0.6       0.2       0.0
 2 C  dxy             0.0       0.2       0.3       0.3       0.1       0.0
 3 N  s               0.0       5.5       9.2       1.8       0.3       0.1
 3 N  pz             15.7       1.8       4.3       0.7       0.2       0.4
 3 N  px             14.6       1.3       4.1       2.3       0.1       0.2
 3 N  py              4.8       0.1       0.2       0.6       0.1       1.9
 3 N  dz2             1.8       0.0       0.0       2.2       0.2       0.2
 3 N  dxz             0.0       5.7       1.7       4.1       0.0       0.1
 3 N  dyz             0.3       1.4       0.1       0.3       0.2       0.2
 3 N  dx2y2           1.0       0.3       0.0       0.3       0.1       0.1
 3 N  dxy             0.1       1.6       0.2       0.6       0.3       3.2
 4 O  s               0.0       2.4       0.1       1.6       0.0       0.5
 4 O  pz             10.6       0.1       0.6       0.2       0.3       0.3
 4 O  px             10.0       0.0       0.8       1.2       0.0       0.5
 4 O  py              3.2       1.0       1.9       1.0       0.1       1.1
 4 O  dz2             0.0       0.0       0.6       1.2       0.0       0.6
 4 O  dxz             0.4       0.4       0.4       0.3       0.3       0.2
 4 O  dyz             1.5       0.0       0.1       0.2       0.0       0.5
 4 O  dx2y2           1.9       0.2       0.8       0.0       0.0       0.1
 4 O  dxy             0.5       1.4       2.0       0.1       0.0       0.2
 5 O  s               0.0       3.2       0.4       0.5       0.0       0.0
 5 O  pz             10.0       1.2       1.0       0.1       0.3       0.2
 5 O  px              9.5       0.0       0.9       0.3       0.0       0.5
 5 O  py              3.0       0.7       0.8       0.5       0.2       0.1
 5 O  dz2             2.5       0.0       0.0       0.1       0.0       0.0
 5 O  dxz             0.2       0.9       0.1       0.6       0.2       0.9
 5 O  dyz             0.2       0.7       1.7       0.1       0.0       0.0
 5 O  dx2y2           0.0       0.1       0.0       0.0       0.2       0.6
 5 O  dxy             1.2       0.0       0.7       0.2       0.3       0.3
 6 H  s               0.0       3.0       1.4       0.6       1.3       1.3
 6 H  pz              0.0       0.1       0.0       0.0       0.2       0.0
 6 H  px              0.0       0.7       0.2       0.1       0.6       0.2
 6 H  py              0.0       0.3       0.0       0.9       0.0       0.0
 7 H  s               0.0       1.5       0.8       2.0       1.6       2.8
 7 H  pz              0.0       0.9       0.0       0.6       0.2       0.6
 7 H  px              0.0       0.0       0.1       0.1       0.4       0.2
 7 H  py              0.0       0.1       0.0       0.1       1.1       0.4
 8 H  s               0.0       2.5       0.0       0.1       3.2       0.0
 8 H  pz              0.0       0.3       0.1       0.0       1.6       0.0
 8 H  px              0.0       1.2       0.0       0.0       0.4       0.1
 8 H  py              0.0       0.0       0.1       0.0       0.6       0.3
 9 H  s               0.0       2.0       2.5       0.4       0.1       3.2
 9 H  pz              0.0       0.5       0.5       0.4       0.3       0.4
 9 H  px              0.0       0.3       0.0       0.3       0.1       0.1
 9 H  py              0.0       0.3       0.0       0.5       0.6       1.3
10 H  s               0.1       1.7       1.4       0.4       0.1       1.7
10 H  pz              0.0       0.6       0.2       0.0       0.4       0.2
10 H  px              0.0       0.4       0.3       0.9       0.1       0.1
10 H  py              0.0       0.0       0.1       0.3       0.8       0.0
11 H  s               0.0       2.8       1.2       0.2       1.5      10.6
11 H  pz              0.0       0.1       0.3       0.3       0.1       3.0
11 H  px              0.0       0.2       0.8       0.7       0.0       0.0
11 H  py              0.0       0.8       1.2       0.1       0.5       1.6
12 H  s               1.9       3.6       1.2       0.3       1.1       3.7
12 H  pz              0.0       0.2       0.4       0.7       0.0       0.3
12 H  px              0.0       0.1       1.3       0.5       0.0       0.0
12 H  py              0.0       1.0       0.3       0.0       0.9       0.3

                     30        31        32        33        34        35   
                   0.15749   0.17087   0.19514   0.19766   0.20988   0.21702
                   0.00000   0.00000   0.00000   0.00000   0.00000   0.00000
                  --------  --------  --------  --------  --------  --------
 0 C  s               0.8       0.3       0.1       0.1       0.1       4.3
 0 C  pz              2.2       0.8       1.8      14.7       9.5       1.7
 0 C  px             11.1       5.3      10.2       2.1      10.4       0.4
 0 C  py              2.9      18.4       6.9       0.7       7.2       7.0
 0 C  dz2             0.1       0.3       0.0       0.6       0.1       0.3
 0 C  dxz             0.9       0.9       1.0       1.2       0.0       0.0
 0 C  dyz             0.0       0.0       0.8       0.0       3.5       0.6
 0 C  dx2y2           0.0       0.5       0.6       0.2       1.4       0.5
 0 C  dxy             0.8       0.0       0.1       0.1       0.4       0.1
 1 C  s               0.7       4.9       0.3       0.4       0.3       0.9
 1 C  pz              5.3       1.4       3.1       9.0       2.7       6.6
 1 C  px              6.0       4.0       3.6       6.6       0.2      12.5
 1 C  py              3.6       3.0       2.1       3.2       1.7       5.6
 1 C  dz2             0.1       0.0       0.0       0.0       0.5       0.0
 1 C  dxz             1.3       1.4       0.0       0.0       0.0       0.3
 1 C  dyz             0.0       0.1       0.4       0.6       0.1       0.4
 1 C  dx2y2           0.0       0.0       0.2       0.8       0.5       1.1
 1 C  dxy             1.1       0.1       0.2       0.2       0.6       0.8
 2 C  s               1.2       2.1       0.5       2.8       1.0       2.8
 2 C  pz             10.3       0.9       4.0       0.8       0.7       1.4
 2 C  px              1.1       5.6       1.3       1.3       1.2       7.1
 2 C  py              6.3       0.6      18.3       1.9       1.4       1.2
 2 C  dz2             0.2       0.0       0.0       0.2       0.0       0.3
 2 C  dxz             0.4       0.4       0.3       0.0       0.2       0.1
 2 C  dyz             1.1       0.3       0.0       0.1       0.3       0.1
 2 C  dx2y2           0.1       0.1       0.6       0.0       0.0       0.0
 2 C  dxy             0.0       0.0       0.2       0.3       0.0       0.6
 3 N  s               1.3       1.9       0.6       2.4       0.8       2.1
 3 N  pz              1.2       0.8       0.7       1.3       0.4       2.0
 3 N  px              1.9       0.2       0.0       1.5       1.9       0.9
 3 N  py              0.1       1.6       1.6       3.3       0.5       3.3
 3 N  dz2             0.1       0.8       1.0       0.0       0.2       0.6
 3 N  dxz             0.1       0.3       0.5       0.7       0.0       0.5
 3 N  dyz             0.9       0.0       0.2       0.1       0.0       1.3
 3 N  dx2y2           0.3       0.1       0.5       1.8       0.2       0.6
 3 N  dxy             0.1       1.1       0.4       1.1       0.2       0.3
 4 O  s               1.0       0.9       1.2       1.2       0.2       0.0
 4 O  pz              0.6       0.1       0.3       0.9       0.0       0.3
 4 O  px              0.1       1.0       0.5       0.1       0.7       1.2
 4 O  py              0.7       2.0       1.2       1.7       0.1       0.5
 4 O  dz2             0.2       1.3       0.1       0.1       0.0       0.0
 4 O  dxz             0.2       0.0       0.3       0.9       0.0       0.2
 4 O  dyz             0.1       0.0       0.0       0.7       0.0       0.5
 4 O  dx2y2           0.2       0.1       0.0       0.1       0.0       0.8
 4 O  dxy             1.1       0.4       0.1       0.0       0.0       0.1
 5 O  s               1.8       0.2       0.1       0.2       0.1       3.4
 5 O  pz              0.5       1.7       0.0       0.1       0.5       2.7
 5 O  px              0.5       1.0       0.2       0.7       0.6       0.9
 5 O  py              0.6       0.8       2.4       1.8       0.0       3.3
 5 O  dz2             0.0       0.5       0.0       0.0       0.1       0.2
 5 O  dxz             0.0       0.7       0.0       0.1       1.7       0.1
 5 O  dyz             0.5       0.3       1.1       0.0       0.4       0.8
 5 O  dx2y2           0.0       1.2       0.1       0.0       0.1       0.1
 5 O  dxy             0.0       0.2       0.6       0.5       0.1       0.2
 6 H  s               1.5       1.9      11.6       1.0       3.0       1.8
 6 H  pz              0.7       0.2       1.0       1.8       0.2       0.2
 6 H  px              0.4       0.0       2.0       0.0       2.6       0.3
 6 H  py              0.1       0.0       0.5       0.0       0.2       0.2
 7 H  s               0.2       0.9       0.3       0.4      20.0       2.7
 7 H  pz              0.0       0.0       0.0       0.0       0.9       1.6
 7 H  px              0.0       0.5       0.6       0.5       0.0       0.0
 7 H  py              0.4       1.3       0.0       0.0       2.1       0.0
 8 H  s               5.1       3.1       2.4       5.5       7.0       2.3
 8 H  pz              0.5       0.3       1.0       0.0       0.0       0.5
 8 H  px              0.7       0.1       0.0       1.1       0.6       1.1
 8 H  py              0.1       0.3       0.3       0.1       1.6       0.2
 9 H  s               0.0       4.1       1.2       7.2       1.6       0.5
 9 H  pz              0.1       1.0       0.2       0.9       0.2       0.5
 9 H  px              0.0       1.2       0.1       0.0       0.0       0.4
 9 H  py              0.2       0.4       0.0       1.3       0.7       0.0
10 H  s               6.7       4.7       0.1       3.2       2.4       0.8
10 H  pz              1.3       1.4       0.0       0.1       0.1       0.2
10 H  px              0.7       0.7       0.1       1.2       0.0       1.5
10 H  py              0.2       0.1       0.5       0.5       0.1       0.0
11 H  s               3.2       0.8       1.0       3.6       1.9       0.6
11 H  pz              0.0       0.0       0.0       0.3       0.8       0.1
11 H  px              0.0       0.4       0.2       0.1       0.0       0.2
11 H  py              0.3       0.5       0.1       1.1       0.1       0.0
12 H  s               3.4       4.0       3.5       0.0       0.7       0.3
12 H  pz              1.7       0.2       0.1       0.1       0.0       0.1
12 H  px              0.1       0.2       0.0       0.3       0.1       0.0
12 H  py              0.3       0.9       2.7       0.1       0.0       0.1

                     36        37        38        39        40        41   
                   0.22692   0.23484   0.24451   0.25649   0.26099   0.28754
                   0.00000   0.00000   0.00000   0.00000   0.00000   0.00000
                  --------  --------  --------  --------  --------  --------
 0 C  s               0.4       1.5       1.4       0.1       0.2       0.2
 0 C  pz              2.5      22.0       3.4      17.1       6.8       4.6
 0 C  px              6.7       5.9      15.6       7.7       5.9       1.9
 0 C  py             12.1       5.8       5.6       5.8       0.6       3.5
 0 C  dz2             0.1       0.0       0.1       0.0       0.0       0.5
 0 C  dxz             0.2       0.0       1.7       0.1       0.1       0.1
 0 C  dyz             0.0       0.0       0.0       0.1       0.0       0.1
 0 C  dx2y2           0.0       0.4       0.1       0.0       0.0       0.2
 0 C  dxy             0.7       0.2       0.0       0.0       0.0       0.0
 1 C  s               0.3       2.1       1.3       0.9       0.1       0.4
 1 C  pz              1.8       0.8       5.2       2.4       0.1      12.3
 1 C  px              7.9       1.1       0.3       0.0       0.4       3.1
 1 C  py              1.9      23.6      10.0       3.6       0.1       3.5
 1 C  dz2             0.1       0.1       0.0       0.1       0.1       0.0
 1 C  dxz             0.5       0.1       1.5       0.2       0.1       0.0
 1 C  dyz             0.9       1.0       0.2       0.7       0.1       0.6
 1 C  dx2y2           0.2       0.0       0.0       0.0       0.1       0.0
 1 C  dxy             0.0       0.0       0.1       0.0       0.0       0.3
 2 C  s               1.0       0.7       0.2       0.4       1.1       0.2
 2 C  pz             24.1       1.9       1.8       1.4       0.3       3.6
 2 C  px              2.8       0.4       7.2       2.1       0.3       0.3
 2 C  py              0.7       0.6       1.0       9.6       0.1       1.8
 2 C  dz2             0.1       0.1       0.1       0.0       0.0       0.4
[...]
 3 N  dxz             0.0       0.1       0.1       0.4       0.5      16.1
 3 N  dyz             2.9       0.2       1.3       0.7       1.5       4.3
 3 N  dx2y2           0.4       0.1       1.8       0.1       1.8      12.4
 3 N  dxy             0.1       0.4       0.1       0.0       1.1       1.3
 4 O  s               4.4       3.0       6.4       0.6       0.1       2.8
 4 O  pz              0.6       0.1       0.2       0.5       2.6       1.3
 4 O  px              0.0       0.6       0.0       0.0       1.7       0.3
 4 O  py              0.2       0.0       0.1       0.0       1.0       2.0
 4 O  dxz             0.8       0.1       0.1       0.2       1.3       0.0
 4 O  dyz             2.5       0.5       0.6       1.1       6.0       4.8
 4 O  dx2y2           0.0       1.0       0.1       0.0       3.4       2.1
 4 O  dxy             0.0       0.7       0.4       0.2       1.5       1.5
 5 O  s               9.5       1.8       3.7       1.4       2.1       3.0
 5 O  pz              0.2       0.0       0.8       0.0       0.3       0.2
 5 O  px              0.2       0.0       0.2       0.3       4.3       0.5
 5 O  py              0.0       0.2       0.7       0.0       2.7       2.8
 5 O  dz2             0.2       0.6       2.6       0.0       1.4       2.1
 5 O  dxz             0.1       0.4       0.6       0.3       4.2       1.1
 5 O  dyz             0.0       0.0       0.0       0.0       1.5       0.1
 5 O  dx2y2           0.1       0.1       1.1       0.3       8.1       2.7
 5 O  dxy             0.2       0.0       0.2       0.4       2.4       2.1
 6 H  s               4.7       0.0       2.9       0.0       0.2       0.0
 6 H  pz              4.4       0.1       2.4       0.0       0.1       0.0
 6 H  px              6.0       0.0       4.6       0.1       0.1       0.0
 6 H  py              0.8       0.0       0.0       0.0       0.1       0.0
 7 H  s               0.1       2.6       1.0       0.4       0.0       0.0
 7 H  pz              0.1       2.7       1.2       0.2       0.1       0.0
 7 H  px              0.3       0.2       0.7       0.1       0.2       0.0
 7 H  py              0.2       3.4       1.0       0.9       0.0       0.0
 8 H  s               4.2       2.2       1.8       0.6       0.1       0.0
 8 H  pz              4.5       2.0       2.9       1.2       0.3       0.0
 8 H  px              4.1       2.4       2.0       0.4       0.1       0.0
 8 H  py              0.8       1.0       0.2       0.1       0.0       0.0
 9 H  s               0.3       0.9       1.4       5.3       0.0       0.0
 9 H  pz              0.0       0.7       2.3       3.4       0.0       0.0
 9 H  px              0.3       0.0       0.3       0.4       0.0       0.0
 9 H  py              0.8       1.1       1.7       9.6       0.0       0.0
10 H  s               1.4       1.6       0.8       3.9       0.4       0.3
10 H  pz              1.7       2.1       1.4       2.5       0.3       0.3
10 H  px              1.4       0.7       1.3       4.8       0.5       0.5
10 H  py              0.0       1.6       0.0       0.8       0.3       0.1
11 H  s               0.1       4.7       0.3       3.4       0.5       0.7
11 H  pz              0.0       3.9       0.6       4.0       0.6       0.2
11 H  px              0.0       0.2       0.0       0.0       0.0       0.0
11 H  py              0.2       8.1       0.0       4.9       0.3       1.3
12 H  s               0.9       1.1       2.1       1.1       2.0       0.4
12 H  pz              0.5       1.8       1.6       0.6       0.6       0.1
12 H  px              0.0       0.3       0.0       0.9       1.6       0.4
12 H  py              1.9       0.4       3.2       0.9       2.8       0.6

                    156       157       158       159       160       161   
                   4.80347   4.81449  21.94019  22.04275  22.10366  31.84754
                   0.00000   0.00000   0.00000   0.00000   0.00000   0.00000
                  --------  --------  --------  --------  --------  --------
 0 C  s               0.0       0.0      86.8      10.1       2.8       0.0
 1 C  s               0.0       0.0       4.8      76.3      18.5       0.0
 2 C  s               0.0       0.1       8.0      13.2      78.1       0.0
 2 C  dyz             0.0       0.2       0.0       0.0       0.0       0.0
 3 N  s               1.6       8.8       0.0       0.0       0.1      99.6
 3 N  pz              1.1       3.5       0.0       0.0       0.0       0.0
 3 N  px              1.0       1.5       0.0       0.0       0.0       0.0
 3 N  py             13.9       1.3       0.0       0.0       0.0       0.0
 3 N  dz2             5.1       0.0       0.0       0.0       0.0       0.0
 3 N  dxz             0.6       1.0       0.0       0.0       0.0       0.0
 3 N  dyz             1.2      10.2       0.0       0.0       0.0       0.0
 3 N  dx2y2           2.1       4.9       0.0       0.0       0.0       0.0
 3 N  dxy            11.4       0.1       0.0       0.0       0.0       0.0
 4 O  s              13.6       3.9       0.0       0.0       0.0       0.1
 4 O  px              3.2       0.9       0.0       0.0       0.0       0.0
 4 O  py             12.0       2.6       0.0       0.0       0.0       0.0
 4 O  dz2             6.1       0.9       0.0       0.0       0.0       0.0
 4 O  dxz             0.3       0.1       0.0       0.0       0.0       0.0
 4 O  dyz             0.2       0.0       0.0       0.0       0.0       0.0
 4 O  dx2y2           6.9       0.7       0.0       0.0       0.0       0.0
 4 O  dxy            11.1       2.2       0.0       0.0       0.0       0.0
 5 O  s               1.5      16.5       0.0       0.0       0.0       0.1
 5 O  pz              0.9       7.2       0.0       0.0       0.0       0.0
 5 O  px              0.2       1.5       0.0       0.0       0.0       0.0
 5 O  py              1.2       8.0       0.0       0.0       0.0       0.0
 5 O  dz2             0.1       0.5       0.0       0.0       0.0       0.0
 5 O  dxz             0.0       2.6       0.0       0.0       0.0       0.0
 5 O  dyz             2.9      14.8       0.0       0.0       0.0       0.0
 5 O  dx2y2           0.9       2.9       0.0       0.0       0.0       0.0
 5 O  dxy             0.8       2.6       0.0       0.0       0.0       0.0

                    162       163   
                  43.81430  43.88113
                   0.00000   0.00000
                  --------  --------
 3 N  s               0.1       0.0
 4 O  s              43.9      55.9
 5 O  s              55.9      44.0


                      *****************************
                      * MAYER POPULATION ANALYSIS *
                      *****************************

  NA   - Mulliken gross atomic population
  ZA   - Total nuclear charge
  QA   - Mulliken gross atomic charge
  VA   - Mayer's total valence
  BVA  - Mayer's bonded valence
  FA   - Mayer's free valence

  ATOM       NA         ZA         QA         VA         BVA        FA
  0 C      6.5244     6.0000    -0.5244     3.8001     3.8001    -0.0000
  1 C      6.2240     6.0000    -0.2240     3.6625     3.6625    -0.0000
  2 C      6.2797     6.0000    -0.2797     3.7197     3.7197     0.0000
  3 N      6.7433     7.0000     0.2567     4.5231     4.5231    -0.0000
  4 O      8.2486     8.0000    -0.2486     2.1662     2.1662     0.0000
  5 O      8.2466     8.0000    -0.2466     2.1954     2.1954     0.0000
  6 H      0.8323     1.0000     0.1677     0.9568     0.9568    -0.0000
  7 H      0.8355     1.0000     0.1645     0.9587     0.9587     0.0000
  8 H      0.8350     1.0000     0.1650     0.9593     0.9593    -0.0000
  9 H      0.8318     1.0000     0.1682     0.9593     0.9593    -0.0000
 10 H      0.8239     1.0000     0.1761     0.9534     0.9534    -0.0000
 11 H      0.7897     1.0000     0.2103     0.9406     0.9406     0.0000
 12 H      0.7851     1.0000     0.2149     0.9377     0.9377    -0.0000

  Mayer bond orders larger than 0.100000
B(  0-C ,  1-C ) :   0.9036 B(  0-C ,  6-H ) :   0.9639 B(  0-C ,  7-H ) :   0.9713 
B(  0-C ,  8-H ) :   0.9773 B(  1-C ,  2-C ) :   0.8916 B(  1-C ,  9-H ) :   0.9640 
B(  1-C , 10-H ) :   0.9524 B(  2-C ,  3-N ) :   0.8758 B(  2-C , 11-H ) :   0.9595 
B(  2-C , 12-H ) :   0.9143 B(  3-N ,  4-O ) :   1.7988 B(  3-N ,  5-O ) :   1.8174 
B(  4-O ,  5-O ) :   0.2668 

-------
TIMINGS
-------

Total SCF time: 0 days 0 hours 0 min 25 sec 

Total time                  ....      25.672 sec
Sum of individual times     ....      23.186 sec  ( 90.3%)

SCF preparation             ....       0.400 sec  (  1.6%)
Fock matrix formation       ....      20.821 sec  ( 81.1%)
  Startup                   ....       0.080 sec  (  0.4% of F)
  Split-RI-J                ....       2.612 sec  ( 12.5% of F)
  XC integration            ....      14.433 sec  ( 69.3% of F)
    XC Preparation          ....       0.000 sec  (  0.0% of XC)
    Basis function eval.    ....       2.193 sec  ( 15.2% of XC)
    Density eval.           ....       3.270 sec  ( 22.7% of XC)
    XC-Functional eval.     ....       1.753 sec  ( 12.1% of XC)
    XC-Potential eval.      ....       4.113 sec  ( 28.5% of XC)
  CPCM terms                ....       2.988 sec  ( 14.3% of F)
Diagonalization             ....       0.000 sec  (  0.0%)
Density matrix formation    ....       0.288 sec  (  1.1%)
Total Energy calculation    ....       0.063 sec  (  0.2%)
Population analysis         ....       0.090 sec  (  0.3%)
Orbital Transformation      ....       0.068 sec  (  0.3%)
Orbital Orthonormalization  ....       0.000 sec  (  0.0%)
DIIS solution               ....       1.360 sec  (  5.3%)
  MO trafo                  ....       0.000 sec  (  0.0 % of DIIS)
  Orb grad                  ....       0.000 sec  (  0.0 % of DIIS)
  Energy W gradient         ....       0.000 sec  (  0.0 % of DIIS)
  DIIS error                ....       0.014 sec  (  1.0 % of DIIS)
  DIIS work                 ....       1.277 sec  ( 93.9 % of DIIS)
  Form Q                    ....       0.000 sec  (  0.0 % of DIIS)
  Form QpQm                 ....       0.000 sec  (  0.0 % of DIIS)
  Exp/Cayley                ....       0.000 sec  (  0.0 % of DIIS)
  Orb update                ....       0.000 sec  (  0.0 % of DIIS)
  Wake-sleep                ....       0.033 sec  (  2.4 % of DIIS)
SOSCF solution              ....       0.095 sec  (  0.4%)
  MO trafo                  ....       0.051 sec  ( 53.6 % of SOSCF)
  Orb grad                  ....       0.001 sec  (  1.6 % of SOSCF)
  Rot update                ....       0.019 sec  ( 19.7 % of SOSCF)
  Step                      ....       0.024 sec  ( 25.1 % of SOSCF)
Finished LeanSCF after  26.2 sec

Maximum memory used throughout the entire LEANSCF-calculation: 17.1 MB


-------------------------------------------------------------------------------
                          DFT DISPERSION CORRECTION                            
                                                                               
                                DFTD4 V3.4.0                                   
-------------------------------------------------------------------------------
The R2SCAN3C composite method is recognized
Using three-body term ABC
Active option DFTDOPT                   ...         5   

-------------------------   ----------------
Dispersion correction           -0.002953106
-------------------------   ----------------

------------------   -----------------
gCP correction             0.012591514
------------------   -----------------

-------------------------   --------------------
FINAL SINGLE POINT ENERGY      -323.585825353981
-------------------------   --------------------


------------------------------------------------------------------------------
                              ORCA PROPERTY CALCULATIONS
------------------------------------------------------------------------------

GBWName                                 ... sp_solv.gbw
Number of atoms                         ...     13
Number of basis functions               ...    164
Max core memory                         ...   1024 MB

Electric properties:
Dipole moment                           ... YES
Quadrupole moment                       ...  NO
Static polarizability (Dipole/Dipole)   ...  NO
Static polarizability (Dipole/Quad.)    ...  NO
Static polarizability (Quad./Quad.)     ...  NO
Static polarizability (Velocity)        ...  NO

Atomic electric properties:
Dipole moment                           ...  NO
Quadrupole moment                       ...  NO
Static polarizability                   ...  NO

Choice of electric origin               ... Center of mass
Position of electric origin             ...    -0.000051    -0.000003     0.000010

General magnetic properties:
Magnetizability                         ...  NO

EPR properties:
g-Tensor (aka g-matrix)                 ...  NO
Zero-Field splitting spin-orbit         ...  NO
Zero-field splitting spin-spin          ...  NO
Hyperfine couplings                     ...  NO (   0 nuclei)
Quadrupole couplings                    ...  NO (   0 nuclei)
Contact density                         ...  NO (   0 nuclei)

NMR properties:
Chemical shifts                         ...  NO (   0 nuclei)
Spin-rotation constants                 ...  NO (   0 nuclei)
Spin-spin couplings                     ...  NO (   0 nuclei,    0 pairs)

Choice of magnetic origin               ... GIAO
Position of magnetic origin             ...     0.000000     0.000000     0.000000

Properties with geometric perturbations:
SCF Hessian                             ...  NO
IR spectrum                             ...  NO
VCD spectrum                            ...  NO
X-ray spectroscopy properties:
SCF XES/XAS/RIXS spectra                ...  NO


-------------
DIPOLE MOMENT
-------------

Method             : SCF
Type of density    : Electron Density
Multiplicity       :   1
Irrep              :   0
Energy             :  -323.5954637624926136 Eh
Relativity type    : 
Basis              : AO
                                X                 Y                 Z
Electronic contribution:      7.910891869      -0.399921090      -0.127094959
Nuclear contribution   :     -9.499104552      -0.015932545       1.202484663
                        -----------------------------------------
Total Dipole Moment    :     -1.588212683      -0.415853635       1.075389704
                        -----------------------------------------
Magnitude (a.u.)       :      1.962604593
Magnitude (Debye)      :      4.988544429



--------------------
Rotational spectrum 
--------------------
 
Rotational constants in cm-1:             0.205114             0.085616             0.079168 
Rotational constants in MHz :          6149.160018          2566.701296          2373.382323 

Dipole components along the rotational axes: 
x,y,z [a.u.] :    -1.587861    -0.349263     1.099332 
x,y,z [Debye]:    -4.036022    -0.887755     2.794279 

 

Dipole moment calculation done in   0.0 sec 

Maximum memory used throughout the entire PROP-calculation: 9.6 MB

--------------------------------
SUGGESTED CITATIONS FOR THIS RUN
--------------------------------

Below you find a list of papers that are relevant to this ORCA run
We neither can nor want to force you to cite these papers, but we appreciate if you do
You receive ORCA, which is the product of decades of hard work by many enthusiastic individuals, for free
The only thing we kindly ask in return is that you cite our papers,
We deeply appreciate it, if you show your appreciation for ORCA by not just citing the generic ORCA reference.

Please note that relegating all ORCA citations to the supporting information does *not* help us.
SI sections are not indexed - citations you put there will not count into any citation statistics
But we need these citations in order to attract the funding resources that allow us to do what we are doing

Therefore, if you are a happy ORCA user, please consider citing a few of the papers listed below in the main body of your paper

In addition to the list printed below, the program has created the file sp_solv.bibtex that contains the list in bibtex format
You can import this file easily into all common literature databanks and citation aid programs


List of essential papers. We consider these as the minimum necessary citations

  1. Neese,F.
     Software update: the ORCA program system, version 5.0
     WIRES Comput. Molec. Sci., 2022 12(1)e1606
     doi.org/10.1002/wcms.1606
  2. Grimme,S.; Hansen,A.; Ehlert,S.; Mewes,J.
     r2SCAN-3c: A 'Swiss army knife' composite electronic-structure method
     J. Chem. Phys., 2021 154 064103
     doi.org/10.1063/5.0040021

List of papers to cite with high priority. The work reported in these papers was absolutely
necessary for this run to complete.
Our perspective: the developers of density functionals and basis sets usually get cited in chemistry papers
Good! But without the algorithms to do something with them, the functionals or basis sets would not do anything.
Hence, in our opinion, the algorithm design and method developments papers are equally worthy of getting cited

  1. Neese,F.
     An improvement of the resolution of the identity approximation for the formation of the Coulomb matrix
     J. Comp. Chem., 2003 24(14)1740-1747
     doi.org/10.1002/jcc.10318
  2. Garcia-Rates,M.; Neese,F.
     Effect of the Solute Cavity on the Solvation Energy and its Derivatives within the Framework of the Gaussian Charge Scheme
     J. Comput. Chem., 2020 41 922-939
     doi.org/10.1002/jcc.26139
  3. Neese,F.
     The SHARK Integral Generation and Digestion System
     J. Comp. Chem., 2022  1-16
     doi.org/10.1002/jcc.26942
  4. Lehtola,S.; Steigemann,C.; Oliveira,M.; Marques,M.
     Recent developments in Libxc - A comprehensive library of functionals for density functional theory
     Software X, 2018 7 
     doi.org/10.1016/j.softx.2017.11.002
  5. Caldeweyher,E.; Bannwarth,C.; Grimme,S.
     Extension of the D3 dispersion coefficient model
     J. Chem. Phys., 2017 147 034112-XXXX
     doi.org/10.1063/1.4993215
  6. Caldeweyher,E.; Ehlert,S.; Hansen,A.; Neugebauer,H.; Spicher,S.; Bannwarth,C.; Grimme,S.
     A generally applicable atomic-charge dependent London dispersion correction
     J. Chem. Phys., 2019 150 154122-XXXX
     doi.org/10.1063/1.5090222
  7. Caldeweyher,E.; Mewes,J.; Ehlert,S.; Grimme,S.
     Extension and evaluation of the D4 London-dispersion model for periodic systems
     Phys. Chem. Chem. Phys., 2020 22(16)8499-8512
     doi.org/10.1039/D0CP00502A

List of suggested additional citations. These are papers that are important in the 'surrounding' of 
of this run, or papers that preceded the highly important papers. If you like your results we are grateful for a citation.

  1. Neese,F.
     The ORCA program system
     WIRES Comput. Molec. Sci., 2012 2(1)73-78
     doi.org/10.1002/wcms.81
  2. Neese,F.
     Software update: the ORCA program system, version 4.0
     WIRES Comput. Molec. Sci., 2018 8(1)1-6
     doi.org/10.1002/wcms.1327
  3. Neese,F.; Wennmohs,F.; Becker,U.; Riplinger,C.
     The ORCA quantum chemistry program package
     J. Chem. Phys., 2020 152 Art. No. L224108
     doi.org/10.1063/5.0004608

List of optional additional citations

  1. Neese,F.
     Approximate second-order SCF convergence for spin unrestricted wavefunctions
     Chem. Phys. Lett., 2000 325(1-3)93-98
     doi.org/10.1016/s0009-2614(00)00662-x

Timings for individual modules:

Sum of individual times          ...       28.228 sec (=   0.470 min)
Startup calculation              ...        1.472 sec (=   0.025 min)   5.2 %
SCF iterations                   ...       26.640 sec (=   0.444 min)  94.4 %
Property calculations            ...        0.116 sec (=   0.002 min)   0.4 %
                             ****ORCA TERMINATED NORMALLY****
TOTAL RUN TIME: 0 days 0 hours 0 minutes 29 seconds 198 msec
