 Entering Gaussian System
 *********************************************
 Gaussian 98:
 frequency output generated by the xtb code
 *********************************************
                         Standard orientation:
 --------------------------------------------------------------------
  Center     Atomic     Atomic              Coordinates (Angstroms)
  Number     Number      Type              X           Y           Z
 --------------------------------------------------------------------
    1          6             0       -3.628658   -0.505937    0.360186
    2          6             0       -2.262551   -0.472838   -0.312388
    3          6             0       -1.215170    0.196200    0.587625
    4          6             0        0.101461    0.283750   -0.137133
    5          8             0        0.301773    0.958784   -1.125806
    6          8             0        1.017949   -0.499778    0.416555
    7          6             0        2.332229   -0.538713   -0.165726
    8          6             0        3.210523    0.572300    0.388792
    9          1             0       -4.353635   -0.988963   -0.289048
   10          1             0       -3.579039   -1.058689    1.294726
   11          1             0       -3.973649    0.502640    0.572620
   12          1             0       -2.320537    0.080213   -1.252052
   13          1             0       -1.940137   -1.490576   -0.541511
   14          1             0       -1.077566   -0.372624    1.505990
   15          1             0       -1.543052    1.209308    0.824414
   16          1             0        2.720945   -1.522265    0.099553
   17          1             0        2.234834   -0.447151   -1.251754
   18          1             0        2.805423    1.541868    0.107643
   19          1             0        3.255736    0.507937    1.472545
   20          1             0        4.211559    0.477128   -0.018971
 --------------------------------------------------------------------
     1 basis functions        1 primitive gaussians
     1 alpha electrons        1 beta electrons
 
 Harmonic frequencies (cm**-1), IR intensities (km*mol⁻¹),
 Raman scattering activities (A**4/amu), Raman depolarization ratios,
 reduced masses (AMU), force constants (mDyne/A) and normal coordinates:
                      1                      2                      3
                        a                      a                      a 
 Frequencies --   -15.7514                49.7659                79.7703
 Red. masses --     9.3962                 9.7688                 7.1727
 Frc consts  --     0.0000                 0.0000                 0.0000
 IR Inten    --     2.1725                 2.2031                 0.3503
 Raman Activ --     0.0000                 0.0000                 0.0000
 Depolar     --     0.0000                 0.0000                 0.0000
 Atom AN      X      Y      Z        X      Y      Z        X      Y      Z
   1   6     0.12  -0.27  -0.00    -0.01   0.04  -0.23     0.11  -0.40   0.19
   2   6     0.17  -0.25   0.11     0.08   0.02  -0.06    -0.09   0.39  -0.19
   3   6    -0.06   0.36  -0.07    -0.01  -0.04   0.10    -0.03   0.16  -0.09
   4   6    -0.02   0.25   0.00     0.04  -0.01   0.20     0.00   0.06  -0.04
   5   8     0.14   0.34   0.07     0.16   0.12   0.35     0.11  -0.06  -0.11
   6   8    -0.19   0.06  -0.04    -0.03  -0.17   0.16    -0.08   0.09   0.12
   7   6    -0.16  -0.14  -0.03    -0.05  -0.19   0.09    -0.05  -0.12   0.15
   8   6    -0.00  -0.27  -0.03    -0.17   0.21  -0.51     0.01  -0.06  -0.06
   9   1     0.08  -0.20   0.04     0.02   0.02  -0.10     0.01  -0.04   0.02
  10   1     0.04   0.03   0.06    -0.04   0.00  -0.07     0.15  -0.30  -0.06
  11   1    -0.03  -0.08  -0.13    -0.00   0.01  -0.07    -0.02  -0.18   0.29
  12   1     0.04  -0.19  -0.04     0.06   0.02  -0.01    -0.14   0.26   0.04
  13   1     0.12  -0.08   0.16     0.02   0.01  -0.02     0.04   0.17  -0.24
  14   1    -0.02   0.22   0.05    -0.03  -0.03   0.02    -0.03   0.00  -0.05
  15   1    -0.08   0.12  -0.16    -0.01  -0.02   0.04     0.02   0.05   0.02
  16   1    -0.09  -0.06  -0.01     0.03  -0.00   0.15    -0.04  -0.03   0.11
  17   1    -0.04  -0.04  -0.01    -0.03  -0.21   0.02    -0.00  -0.10   0.04
  18   1     0.04  -0.06  -0.01    -0.10   0.00  -0.28     0.03  -0.03  -0.08
  19   1    -0.01  -0.08  -0.01    -0.02   0.22  -0.14    -0.01   0.05  -0.01
  20   1    -0.00  -0.12  -0.01    -0.05   0.05  -0.16     0.00  -0.06  -0.00
                      4                      5                      6
                        a                      a                      a 
 Frequencies --    94.1801               184.5639               205.1421
 Red. masses --    11.1216                 8.7707                 4.5358
 Frc consts  --     0.0000                 0.0000                 0.0000
 IR Inten    --     0.5865                 4.0527                 4.5566
 Raman Activ --     0.0000                 0.0000                 0.0000
 Depolar     --     0.0000                 0.0000                 0.0000
 Atom AN      X      Y      Z        X      Y      Z        X      Y      Z
   1   6     0.07   0.07   0.27     0.14  -0.07  -0.20     0.07  -0.02  -0.13
   2   6    -0.04  -0.00   0.03     0.27   0.21   0.11     0.18   0.06   0.13
   3   6     0.07   0.06  -0.16     0.09   0.30   0.26     0.10   0.03   0.23
   4   6     0.08  -0.07  -0.16     0.01  -0.04   0.11    -0.03   0.05   0.00
   5   8     0.29   0.12  -0.00    -0.11  -0.33  -0.09    -0.29  -0.02  -0.10
   6   8    -0.09  -0.40  -0.32    -0.03  -0.18  -0.01    -0.00  -0.00  -0.17
   7   6     0.06  -0.07   0.04    -0.10   0.03  -0.17     0.03  -0.05  -0.05
   8   6    -0.40   0.23   0.20    -0.26   0.05   0.06    -0.06  -0.03   0.07
   9   1    -0.01   0.01   0.13     0.10  -0.01  -0.14     0.05   0.05  -0.11
  10   1     0.07   0.05   0.09    -0.00  -0.07  -0.08    -0.04  -0.07  -0.07
  11   1     0.04   0.03   0.07    -0.01  -0.04  -0.03     0.02  -0.01   0.01
  12   1    -0.05  -0.02  -0.00     0.11   0.07   0.04     0.09   0.03   0.04
  13   1    -0.02  -0.01   0.02     0.14   0.08   0.03     0.07   0.02   0.03
  14   1     0.02   0.05  -0.03    -0.00   0.12   0.10     0.05  -0.01   0.05
  15   1     0.04   0.03  -0.08     0.04   0.10   0.02     0.02   0.00   0.09
  16   1     0.07   0.02   0.07     0.01   0.00  -0.13    -0.01  -0.01   0.03
  17   1     0.09  -0.05   0.00    -0.06   0.08  -0.04     0.05  -0.04  -0.02
  18   1    -0.17   0.02  -0.01    -0.23   0.01   0.22     0.23  -0.01  -0.35
  19   1    -0.21   0.10   0.06     0.07  -0.15   0.00    -0.42   0.23   0.05
  20   1    -0.07   0.14   0.15    -0.12   0.20  -0.13     0.12  -0.26   0.41
                      7                      8                      9
                        a                      a                      a 
 Frequencies --   232.5391               283.2483               312.3747
 Red. masses --     2.0687                 9.0327                 9.2564
 Frc consts  --     0.0000                 0.0000                 0.0000
 IR Inten    --     0.1061                12.9458                 3.2808
 Raman Activ --     0.0000                 0.0000                 0.0000
 Depolar     --     0.0000                 0.0000                 0.0000
 Atom AN      X      Y      Z        X      Y      Z        X      Y      Z
   1   6    -0.01   0.06   0.00    -0.18  -0.06   0.00    -0.45  -0.18  -0.13
   2   6     0.04  -0.24   0.09    -0.16   0.02   0.00    -0.20   0.12   0.31
   3   6    -0.01   0.05  -0.06    -0.13   0.18  -0.11     0.00   0.17   0.09
   4   6    -0.00   0.04  -0.04     0.04  -0.15   0.14     0.03  -0.04  -0.09
   5   8     0.05   0.05  -0.03     0.36  -0.23   0.20     0.00   0.08  -0.03
   6   8    -0.03   0.04   0.00     0.11  -0.14   0.16     0.08  -0.14  -0.26
   7   6    -0.02  -0.01   0.03    -0.06   0.27  -0.30     0.29  -0.07   0.12
   8   6    -0.01  -0.00  -0.00     0.06   0.06  -0.04     0.23   0.06   0.01
   9   1    -0.13   0.51  -0.22    -0.04  -0.00  -0.02    -0.01  -0.08  -0.16
  10   1    -0.17  -0.40  -0.24    -0.06  -0.05  -0.02    -0.22  -0.09  -0.05
  11   1     0.28   0.03   0.43    -0.06  -0.03   0.03    -0.23  -0.08  -0.05
  12   1     0.04  -0.14  -0.02    -0.07  -0.02  -0.02    -0.05   0.02   0.08
  13   1    -0.00  -0.09   0.11    -0.03   0.01   0.03    -0.03   0.04   0.10
  14   1     0.01   0.09   0.03    -0.11   0.14   0.04     0.02   0.10   0.06
  15   1    -0.03   0.02  -0.10    -0.00   0.09  -0.16     0.06   0.08  -0.02
  16   1    -0.01  -0.00   0.02     0.03   0.05  -0.27     0.07   0.00   0.13
  17   1    -0.00  -0.01   0.01    -0.13   0.23  -0.06     0.16  -0.10   0.02
  18   1    -0.03  -0.00   0.04     0.18   0.05  -0.12     0.02   0.00   0.03
  19   1     0.05  -0.02  -0.00    -0.17   0.06  -0.00     0.15   0.02  -0.00
  20   1    -0.02   0.03  -0.05     0.07  -0.13   0.16     0.04   0.05  -0.07
                     10                     11                     12
                        a                      a                      a 
 Frequencies --   378.3831               460.6503               617.5536
 Red. masses --    10.7235                10.8665                10.8747
 Frc consts  --     0.0000                 0.0000                 0.0000
 IR Inten    --     8.1069                 6.1311                22.4993
 Raman Activ --     0.0000                 0.0000                 0.0000
 Depolar     --     0.0000                 0.0000                 0.0000
 Atom AN      X      Y      Z        X      Y      Z        X      Y      Z
   1   6    -0.22  -0.07  -0.05     0.09   0.02  -0.02    -0.00   0.01   0.02
   2   6    -0.05  -0.01   0.24     0.11   0.01   0.08    -0.06  -0.10  -0.14
   3   6     0.20  -0.20   0.11     0.04  -0.07   0.13    -0.33   0.05   0.21
   4   6     0.11   0.17  -0.13    -0.15   0.01  -0.13    -0.07   0.45   0.35
   5   8     0.46   0.01  -0.21     0.24  -0.06  -0.10     0.24  -0.29  -0.08
   6   8     0.01   0.30   0.14    -0.45  -0.30  -0.14    -0.02   0.02  -0.30
   7   6    -0.18  -0.05  -0.11    -0.26   0.31   0.22     0.19  -0.05  -0.12
   8   6    -0.26  -0.08   0.00     0.25   0.11  -0.02     0.06   0.02   0.02
   9   1     0.01  -0.04  -0.09     0.04   0.01  -0.02    -0.07   0.03   0.07
  10   1    -0.14  -0.03  -0.01     0.01   0.01  -0.00     0.05   0.02   0.01
  11   1    -0.11  -0.03  -0.05     0.03   0.01  -0.02     0.06   0.02   0.02
  12   1     0.00   0.02   0.08     0.05   0.02   0.03    -0.01  -0.04  -0.04
  13   1    -0.04  -0.00   0.04     0.04   0.01   0.01     0.01  -0.02  -0.01
  14   1     0.20  -0.18  -0.06     0.10  -0.10  -0.03    -0.08  -0.10  -0.01
  15   1     0.04  -0.11   0.22    -0.00  -0.05   0.16    -0.24  -0.07   0.19
  16   1    -0.07  -0.03  -0.06    -0.04   0.09   0.02     0.01   0.00   0.09
  17   1    -0.09   0.01  -0.03    -0.05   0.12   0.06     0.14  -0.10  -0.05
  18   1    -0.10  -0.03   0.01     0.22   0.09  -0.02    -0.02  -0.00   0.03
  19   1    -0.13  -0.05   0.00     0.20   0.08  -0.01    -0.01  -0.03   0.00
  20   1    -0.05   0.02   0.05     0.00  -0.18  -0.13     0.03   0.07   0.03
                     13                     14                     15
                        a                      a                      a 
 Frequencies --   711.6251               786.6959               813.8732
 Red. masses --    11.8446                 2.5440                 3.7224
 Frc consts  --     0.0000                 0.0000                 0.0000
 IR Inten    --    17.9109                 8.5586                18.8387
 Raman Activ --     0.0000                 0.0000                 0.0000
 Depolar     --     0.0000                 0.0000                 0.0000
 Atom AN      X      Y      Z        X      Y      Z        X      Y      Z
   1   6    -0.14  -0.02   0.04     0.03   0.03  -0.03     0.03  -0.02  -0.01
   2   6    -0.07  -0.04  -0.07    -0.04   0.21  -0.07     0.01  -0.06   0.02
   3   6     0.23   0.03  -0.21    -0.08   0.15  -0.05    -0.16   0.04   0.13
   4   6     0.42   0.45   0.28    -0.09  -0.11  -0.09    -0.12  -0.01  -0.14
   5   8    -0.28   0.02  -0.21    -0.02   0.03   0.04     0.05   0.09  -0.09
   6   8     0.02  -0.37   0.14     0.00  -0.01   0.09    -0.06  -0.02   0.09
   7   6    -0.07  -0.01   0.11     0.08  -0.05  -0.02     0.21  -0.22   0.11
   8   6    -0.01   0.02   0.01     0.03   0.00   0.00     0.10  -0.02   0.07
   9   1    -0.03  -0.01  -0.00     0.03  -0.07   0.03    -0.03   0.03   0.01
  10   1    -0.05  -0.02   0.00     0.22  -0.10  -0.08    -0.04   0.04   0.02
  11   1    -0.06  -0.01   0.02    -0.15  -0.08   0.16     0.09   0.04  -0.05
  12   1    -0.06  -0.07  -0.05     0.12  -0.38  -0.28    -0.03   0.08   0.07
  13   1    -0.05  -0.03   0.02     0.01  -0.06   0.49     0.05   0.02  -0.10
  14   1     0.06  -0.06  -0.10    -0.02  -0.27  -0.20     0.01   0.02   0.03
  15   1    -0.01  -0.04   0.03     0.12   0.00   0.34    -0.09  -0.01   0.04
  16   1     0.05  -0.02  -0.15     0.02  -0.03  -0.07    -0.04  -0.22  -0.42
  17   1    -0.10   0.14   0.05    -0.01   0.05   0.00    -0.02   0.40   0.07
  18   1     0.02  -0.00  -0.05    -0.04  -0.03  -0.03    -0.25  -0.19  -0.25
  19   1     0.05   0.08   0.00    -0.01   0.03   0.00     0.09   0.34   0.03
  20   1    -0.03  -0.05  -0.04     0.02   0.05   0.02     0.02   0.18  -0.04
                     16                     17                     18
                        a                      a                      a 
 Frequencies --   874.0890               913.3924               925.3652
 Red. masses --     7.0850                 5.5518                 7.4645
 Frc consts  --     0.0000                 0.0000                 0.0000
 IR Inten    --    14.0061                 1.5857                 0.6919
 Raman Activ --     0.0000                 0.0000                 0.0000
 Depolar     --     0.0000                 0.0000                 0.0000
 Atom AN      X      Y      Z        X      Y      Z        X      Y      Z
   1   6     0.04  -0.08   0.03     0.05  -0.12   0.07     0.25   0.12   0.10
   2   6     0.02  -0.07   0.05     0.01  -0.02   0.03     0.05   0.12   0.24
   3   6    -0.11   0.19  -0.05     0.00   0.21  -0.20    -0.00  -0.19  -0.39
   4   6    -0.08  -0.01  -0.15     0.00  -0.10   0.09    -0.11   0.11   0.17
   5   8    -0.05   0.13  -0.10    -0.03  -0.12   0.18    -0.01  -0.14   0.12
   6   8    -0.15  -0.22   0.38     0.21   0.13  -0.23    -0.25   0.07  -0.04
   7   6     0.19  -0.07  -0.19    -0.11   0.08   0.11     0.08  -0.06  -0.10
   8   6     0.15   0.11  -0.07    -0.15  -0.10   0.04     0.15   0.04   0.01
   9   1    -0.02   0.09  -0.04     0.01   0.11  -0.09     0.40  -0.04  -0.29
  10   1    -0.20   0.07   0.07    -0.31   0.08   0.10    -0.17  -0.08  -0.03
  11   1     0.19   0.07  -0.14     0.21   0.08  -0.19    -0.20  -0.05  -0.03
  12   1    -0.18   0.05   0.06    -0.30  -0.06  -0.00    -0.10  -0.00   0.05
  13   1     0.17   0.06  -0.10     0.25   0.08  -0.01    -0.12  -0.01   0.05
  14   1     0.08  -0.13  -0.14    -0.04  -0.21  -0.21    -0.03  -0.04  -0.09
  15   1    -0.05  -0.01   0.22     0.14   0.03   0.24    -0.05  -0.06  -0.13
  16   1     0.17   0.06   0.04    -0.08  -0.00   0.02    -0.09  -0.05  -0.01
  17   1    -0.11  -0.18  -0.04     0.10   0.08   0.02     0.02  -0.01  -0.02
  18   1     0.06   0.09   0.15    -0.01  -0.04  -0.08    -0.08  -0.04  -0.02
  19   1    -0.15  -0.21  -0.02     0.10   0.10   0.01    -0.03   0.03   0.01
  20   1     0.12   0.13   0.17    -0.11  -0.14  -0.13     0.08   0.17   0.07
                     19                     20                     21
                        a                      a                      a 
 Frequencies --   973.0097              1048.7984              1071.7503
 Red. masses --     8.6888                 7.2348                 8.0826
 Frc consts  --     0.0000                 0.0000                 0.0000
 IR Inten    --     5.1793                12.0039               139.9042
 Raman Activ --     0.0000                 0.0000                 0.0000
 Depolar     --     0.0000                 0.0000                 0.0000
 Atom AN      X      Y      Z        X      Y      Z        X      Y      Z
   1   6     0.24   0.09   0.02    -0.07   0.06  -0.01    -0.03  -0.11   0.00
   2   6    -0.03   0.06   0.17     0.05  -0.10  -0.02     0.04   0.15   0.04
   3   6    -0.43  -0.09   0.06     0.16   0.16  -0.15    -0.03  -0.27   0.04
   4   6     0.08   0.02  -0.14    -0.27   0.02   0.02     0.17   0.06   0.06
   5   8     0.03   0.16  -0.21    -0.02  -0.08   0.14     0.02   0.02  -0.09
   6   8     0.33  -0.14   0.09    -0.13   0.03   0.12    -0.41   0.08   0.07
   7   6     0.03   0.07   0.11     0.43   0.14  -0.04     0.40   0.16  -0.03
   8   6    -0.24  -0.08  -0.02    -0.28  -0.18  -0.03    -0.17  -0.15  -0.08
   9   1     0.24  -0.03  -0.16    -0.01  -0.03   0.02    -0.09   0.04   0.04
  10   1    -0.05  -0.05  -0.03     0.07  -0.03  -0.03    -0.06   0.05   0.05
  11   1    -0.09  -0.03  -0.02    -0.10  -0.03   0.06     0.14   0.04  -0.05
  12   1    -0.03   0.02   0.05     0.08   0.07   0.04    -0.00  -0.06  -0.05
  13   1    -0.07  -0.00   0.04    -0.09  -0.03  -0.10     0.16   0.06   0.12
  14   1    -0.20  -0.03   0.02     0.41   0.04  -0.09    -0.37  -0.02   0.09
  15   1    -0.25  -0.06   0.01    -0.17  -0.05   0.05     0.34   0.08  -0.13
  16   1     0.20   0.08  -0.02     0.19   0.07  -0.00     0.10   0.05   0.00
  17   1    -0.00   0.04   0.03     0.17   0.08  -0.00     0.08   0.08   0.01
  18   1     0.11   0.05   0.01     0.05  -0.01  -0.06     0.00  -0.03  -0.03
  19   1     0.05  -0.05  -0.01     0.07  -0.02  -0.02    -0.01  -0.06  -0.03
  20   1    -0.13  -0.26  -0.11    -0.14  -0.24  -0.14    -0.06  -0.10  -0.05
                     22                     23                     24
                        a                      a                      a 
 Frequencies --  1089.3278              1096.5784              1113.7159
 Red. masses --     8.7598                 7.6064                 7.5080
 Frc consts  --     0.0000                 0.0000                 0.0000
 IR Inten    --     1.8335                26.4583                14.9657
 Raman Activ --     0.0000                 0.0000                 0.0000
 Depolar     --     0.0000                 0.0000                 0.0000
 Atom AN      X      Y      Z        X      Y      Z        X      Y      Z
   1   6     0.40  -0.07  -0.36    -0.02   0.02   0.02     0.14   0.07   0.18
   2   6    -0.57  -0.03   0.26     0.03  -0.02  -0.02    -0.21  -0.17  -0.42
   3   6     0.05   0.01   0.01    -0.01   0.04   0.01     0.27   0.14   0.41
   4   6    -0.01   0.08   0.06    -0.02   0.00  -0.01    -0.04  -0.04  -0.04
   5   8    -0.01  -0.02   0.01    -0.00  -0.00  -0.00     0.03   0.03  -0.03
   6   8    -0.00  -0.02  -0.00     0.10  -0.10  -0.08    -0.09   0.04   0.02
   7   6     0.02   0.03   0.02     0.01   0.44   0.36     0.07  -0.00   0.01
   8   6    -0.01  -0.03  -0.02     0.06  -0.37  -0.31    -0.03  -0.00  -0.02
   9   1    -0.03   0.01   0.04     0.01  -0.01  -0.01     0.27  -0.01  -0.21
  10   1     0.26   0.04  -0.07    -0.01  -0.01  -0.00    -0.22  -0.07   0.00
  11   1     0.26   0.03  -0.07    -0.03  -0.01   0.01    -0.15  -0.03  -0.06
  12   1    -0.18  -0.01   0.07     0.01   0.01   0.00    -0.26  -0.14  -0.15
  13   1    -0.18  -0.02   0.06    -0.00  -0.00  -0.02    -0.20  -0.10  -0.06
  14   1     0.17   0.07   0.03     0.03  -0.00  -0.01    -0.08   0.04   0.13
  15   1     0.18   0.06   0.02    -0.06  -0.01   0.02     0.12   0.07   0.04
  16   1    -0.00   0.01   0.01    -0.03   0.09   0.07     0.05   0.01  -0.02
  17   1     0.00   0.01   0.00    -0.04   0.09   0.09    -0.01   0.02   0.01
  18   1    -0.02  -0.02  -0.01    -0.28  -0.20  -0.02     0.02   0.01   0.01
  19   1    -0.02  -0.01  -0.00    -0.31  -0.18  -0.07    -0.00  -0.02  -0.01
  20   1     0.00   0.01   0.01     0.14   0.27   0.16    -0.01  -0.02  -0.00
                     25                     26                     27
                        a                      a                      a 
 Frequencies --  1148.6275              1181.7425              1217.4259
 Red. masses --     6.8240                 9.0838                 4.6912
 Frc consts  --     0.0000                 0.0000                 0.0000
 IR Inten    --    81.9055               324.5892                28.3598
 Raman Activ --     0.0000                 0.0000                 0.0000
 Depolar     --     0.0000                 0.0000                 0.0000
 Atom AN      X      Y      Z        X      Y      Z        X      Y      Z
   1   6     0.03   0.04  -0.02     0.00   0.12  -0.08    -0.07   0.26  -0.06
   2   6    -0.02  -0.08   0.02     0.02  -0.21   0.12     0.09  -0.36   0.09
   3   6    -0.06   0.11   0.05    -0.07   0.22  -0.02    -0.10   0.04  -0.05
   4   6     0.32  -0.16  -0.04     0.48  -0.26   0.02    -0.19   0.15   0.03
   5   8    -0.04   0.08  -0.06    -0.05  -0.04   0.09     0.03   0.01  -0.05
   6   8    -0.13  -0.08   0.19    -0.27   0.22  -0.17     0.10  -0.06   0.03
   7   6    -0.04   0.28  -0.35     0.12  -0.11   0.15    -0.05   0.01  -0.03
   8   6     0.06  -0.17   0.19    -0.05   0.12  -0.14     0.02  -0.04   0.05
   9   1     0.02  -0.02  -0.00     0.01  -0.06   0.03     0.07  -0.12   0.02
  10   1     0.04  -0.02  -0.02     0.14  -0.03  -0.06     0.20  -0.08  -0.11
  11   1    -0.04  -0.01   0.02    -0.10  -0.03   0.09    -0.23  -0.05   0.16
  12   1    -0.01   0.03   0.04    -0.03   0.09   0.12    -0.10   0.12   0.15
  13   1    -0.07  -0.03  -0.06    -0.10  -0.04  -0.16     0.17   0.01  -0.22
  14   1    -0.06  -0.04  -0.02    -0.13  -0.11  -0.09    -0.17  -0.09  -0.06
  15   1    -0.14  -0.03   0.10    -0.12  -0.02   0.18     0.53   0.17   0.08
  16   1    -0.28   0.07   0.27    -0.08  -0.10  -0.10     0.12   0.06   0.01
  17   1     0.26  -0.15  -0.12    -0.08   0.14   0.06    -0.04  -0.06  -0.01
  18   1    -0.16  -0.17  -0.18     0.10   0.11   0.11    -0.03  -0.04  -0.04
  19   1     0.11   0.26   0.06    -0.07  -0.18  -0.04     0.02   0.06   0.02
  20   1    -0.03   0.08  -0.09     0.02  -0.05   0.06    -0.01   0.02  -0.02
                     28                     29                     30
                        a                      a                      a 
 Frequencies --  1251.1770              1257.7737              1274.1885
 Red. masses --     3.1044                 3.4830                 3.6510
 Frc consts  --     0.0000                 0.0000                 0.0000
 IR Inten    --    10.6041                53.4896                73.1951
 Raman Activ --     0.0000                 0.0000                 0.0000
 Depolar     --     0.0000                 0.0000                 0.0000
 Atom AN      X      Y      Z        X      Y      Z        X      Y      Z
   1   6     0.01   0.01   0.08     0.06  -0.12   0.17     0.01  -0.15  -0.04
   2   6    -0.04  -0.04  -0.07    -0.08  -0.03  -0.12     0.11  -0.00   0.12
   3   6    -0.17  -0.05  -0.01    -0.30   0.06  -0.06     0.24   0.18  -0.06
   4   6    -0.04   0.06   0.01     0.17  -0.03   0.05    -0.25   0.08  -0.03
   5   8    -0.00   0.04  -0.06    -0.02  -0.01   0.02     0.03   0.01  -0.03
   6   8     0.10  -0.15   0.15    -0.05   0.06  -0.08     0.08  -0.06   0.07
   7   6     0.05  -0.01   0.04    -0.00   0.01  -0.01    -0.04  -0.02   0.01
   8   6    -0.08   0.15  -0.16     0.02  -0.05   0.06    -0.00   0.01  -0.04
   9   1     0.06  -0.00  -0.05     0.08   0.04  -0.09    -0.10   0.03   0.06
  10   1    -0.05  -0.02   0.01    -0.18   0.01   0.07    -0.05   0.05   0.05
  11   1    -0.02   0.00  -0.02     0.07   0.02  -0.12     0.12   0.01  -0.04
  12   1     0.15   0.04   0.00     0.56   0.15   0.03     0.22   0.09   0.07
  13   1     0.06   0.01  -0.00    -0.26  -0.09  -0.02    -0.54  -0.15  -0.08
  14   1     0.18   0.07   0.02     0.23   0.06  -0.03    -0.49  -0.23  -0.11
  15   1     0.23   0.07   0.03     0.33   0.12   0.14     0.01   0.02   0.02
  16   1    -0.57  -0.23   0.02     0.16   0.07   0.00    -0.02  -0.01  -0.01
  17   1     0.44   0.19  -0.01    -0.22  -0.08   0.01     0.20   0.05  -0.01
  18   1     0.10   0.13   0.11    -0.03  -0.04  -0.04     0.01   0.02   0.03
  19   1    -0.07  -0.19  -0.05     0.03   0.06   0.02    -0.02  -0.03  -0.01
  20   1     0.01  -0.07   0.04    -0.00   0.02  -0.02     0.01   0.00   0.01
                     31                     32                     33
                        a                      a                      a 
 Frequencies --  1313.8823              1340.5344              1393.9584
 Red. masses --     3.4842                 4.7723                 3.1075
 Frc consts  --     0.0000                 0.0000                 0.0000
 IR Inten    --     8.1954                32.1022                 5.4754
 Raman Activ --     0.0000                 0.0000                 0.0000
 Depolar     --     0.0000                 0.0000                 0.0000
 Atom AN      X      Y      Z        X      Y      Z        X      Y      Z
   1   6    -0.01  -0.02  -0.02    -0.03  -0.06  -0.10     0.00   0.00  -0.00
   2   6     0.06   0.01   0.02     0.46   0.14   0.01    -0.00  -0.00   0.00
   3   6     0.04   0.02   0.01    -0.29  -0.06   0.04     0.01   0.00   0.00
   4   6    -0.12   0.03  -0.00     0.07   0.01   0.01    -0.03   0.01  -0.00
   5   8     0.01   0.02  -0.03    -0.01  -0.00   0.00     0.00   0.00  -0.01
   6   8     0.11  -0.09  -0.05    -0.00  -0.00   0.00     0.04  -0.02  -0.01
   7   6     0.35   0.17   0.01    -0.03  -0.01  -0.00     0.08  -0.01  -0.03
   8   6    -0.06   0.07   0.11    -0.00  -0.01  -0.01    -0.28  -0.28  -0.14
   9   1    -0.03   0.00   0.02    -0.14   0.02   0.10    -0.00   0.00   0.00
  10   1    -0.00   0.01   0.00    -0.04   0.07   0.03    -0.00   0.00   0.00
  11   1     0.01  -0.00   0.01    -0.01  -0.03   0.07    -0.00  -0.00   0.00
  12   1    -0.04  -0.01   0.00    -0.48  -0.14  -0.06     0.01   0.00   0.00
  13   1    -0.08  -0.02  -0.01    -0.47  -0.14  -0.03     0.00   0.00   0.00
  14   1    -0.06  -0.04  -0.02     0.26   0.09   0.03    -0.01  -0.01  -0.00
  15   1    -0.00   0.01  -0.02     0.20   0.07   0.02    -0.01  -0.00  -0.01
  16   1    -0.49  -0.19   0.03     0.02   0.01   0.00    -0.10   0.00   0.16
  17   1    -0.62  -0.24   0.04     0.04   0.02  -0.00    -0.16   0.11   0.02
  18   1    -0.03  -0.03  -0.09     0.01   0.00   0.01     0.39   0.21   0.19
  19   1     0.02  -0.06   0.02     0.01   0.01  -0.00     0.37   0.35  -0.01
  20   1    -0.08  -0.14  -0.09     0.01   0.02   0.01     0.13   0.38   0.30
                     34                     35                     36
                        a                      a                      a 
 Frequencies --  1408.8305              1429.5616              1437.5136
 Red. masses --     3.1615                 2.0133                 2.1006
 Frc consts  --     0.0000                 0.0000                 0.0000
 IR Inten    --     1.3569                 3.6560                 4.8442
 Raman Activ --     0.0000                 0.0000                 0.0000
 Depolar     --     0.0000                 0.0000                 0.0000
 Atom AN      X      Y      Z        X      Y      Z        X      Y      Z
   1   6    -0.40  -0.03   0.17     0.00   0.00   0.00     0.00  -0.00  -0.00
   2   6     0.08   0.03   0.02    -0.00  -0.00  -0.00    -0.03  -0.00   0.01
   3   6    -0.01   0.00   0.01     0.00  -0.01  -0.02    -0.10   0.09   0.27
   4   6    -0.00  -0.00  -0.00     0.03   0.01  -0.03     0.06  -0.02   0.03
   5   8     0.00   0.00  -0.00    -0.01  -0.02   0.03    -0.00   0.01  -0.02
   6   8     0.00  -0.00   0.00    -0.04   0.02   0.01    -0.02   0.01  -0.00
   7   6    -0.00   0.00   0.00    -0.02   0.22   0.16    -0.01   0.02   0.01
   8   6    -0.00  -0.00  -0.00    -0.08  -0.06  -0.02    -0.00  -0.01  -0.00
   9   1     0.34  -0.07  -0.36     0.00  -0.00   0.00     0.02   0.00  -0.02
  10   1     0.51  -0.05  -0.04    -0.00  -0.00  -0.00     0.01   0.02   0.01
  11   1     0.44   0.20  -0.17    -0.00   0.00  -0.00     0.01  -0.00   0.02
  12   1    -0.06  -0.08  -0.05    -0.00  -0.00  -0.00     0.02  -0.01  -0.00
  13   1    -0.09  -0.01  -0.08     0.00   0.00  -0.00     0.02   0.01  -0.01
  14   1    -0.00   0.01   0.01    -0.02   0.06   0.04     0.22  -0.54  -0.35
  15   1     0.00   0.00   0.01    -0.00  -0.02   0.06     0.00   0.17  -0.63
  16   1    -0.00   0.00   0.00     0.00  -0.15  -0.63     0.01  -0.01  -0.06
  17   1     0.00   0.00   0.00     0.23  -0.62  -0.06     0.03  -0.06  -0.01
  18   1     0.00   0.00   0.00     0.10   0.05   0.04     0.01   0.01   0.01
  19   1     0.00   0.00  -0.00     0.10   0.08   0.00     0.00   0.01   0.00
  20   1     0.00   0.00   0.00     0.02   0.09   0.07     0.00   0.01   0.00
                     37                     38                     39
                        a                      a                      a 
 Frequencies --  1470.2979              1484.8424              1488.4388
 Red. masses --     1.5099                 1.5725                 1.8617
 Frc consts  --     0.0000                 0.0000                 0.0000
 IR Inten    --     6.4063                 2.3447                 1.1626
 Raman Activ --     0.0000                 0.0000                 0.0000
 Depolar     --     0.0000                 0.0000                 0.0000
 Atom AN      X      Y      Z        X      Y      Z        X      Y      Z
   1   6     0.00  -0.00  -0.00     0.00   0.00  -0.00     0.03  -0.01  -0.03
   2   6    -0.00  -0.00   0.00    -0.00   0.01   0.01    -0.07   0.10   0.25
   3   6    -0.00   0.00   0.00    -0.00   0.00   0.00    -0.01  -0.00   0.01
   4   6     0.00  -0.00   0.01    -0.00  -0.00   0.00     0.00   0.00   0.00
   5   8     0.00   0.00  -0.01    -0.00   0.00  -0.00     0.00   0.00  -0.00
   6   8    -0.00  -0.00   0.00     0.01   0.00  -0.00     0.00  -0.00   0.00
   7   6    -0.03   0.03  -0.03    -0.05  -0.00   0.02     0.00  -0.00  -0.00
   8   6    -0.07   0.15  -0.12    -0.13   0.07   0.16     0.01  -0.00  -0.01
   9   1     0.00   0.00  -0.00     0.00  -0.00   0.00     0.01  -0.00   0.00
  10   1     0.00   0.00   0.00    -0.00   0.00   0.00    -0.06   0.09   0.06
  11   1    -0.00  -0.00   0.00    -0.00  -0.00   0.01    -0.03  -0.03   0.11
  12   1     0.00   0.00   0.00     0.01  -0.03  -0.02     0.21  -0.55  -0.33
  13   1     0.00  -0.00   0.00     0.00   0.01  -0.03     0.03   0.16  -0.64
  14   1     0.00  -0.00  -0.00     0.00  -0.00  -0.00     0.01   0.02   0.02
  15   1     0.00   0.00  -0.00    -0.00   0.00  -0.00     0.01   0.00   0.02
  16   1     0.02   0.03   0.01     0.03   0.02   0.01    -0.00  -0.00   0.00
  17   1    -0.00  -0.02  -0.01     0.03   0.03   0.01    -0.00  -0.00  -0.00
  18   1    -0.40  -0.15  -0.00     0.27  -0.07  -0.64    -0.01   0.00   0.03
  19   1     0.52  -0.11  -0.04     0.25  -0.53  -0.03    -0.01   0.03   0.00
  20   1     0.19  -0.37   0.56     0.02   0.33   0.03    -0.00  -0.02  -0.00
                     40                     41                     42
                        a                      a                      a 
 Frequencies --  1493.4650              1495.1498              1698.4601
 Red. masses --     1.5270                 1.6036                13.3172
 Frc consts  --     0.0000                 0.0000                 0.0000
 IR Inten    --     2.6986                 1.0301               632.8433
 Raman Activ --     0.0000                 0.0000                 0.0000
 Depolar     --     0.0000                 0.0000                 0.0000
 Atom AN      X      Y      Z        X      Y      Z        X      Y      Z
   1   6    -0.04   0.20  -0.05    -0.08  -0.06  -0.19    -0.00  -0.00  -0.01
   2   6    -0.00   0.05  -0.01    -0.03  -0.04  -0.08     0.01   0.01   0.01
   3   6    -0.00  -0.00   0.00     0.01   0.00  -0.00     0.05   0.02  -0.07
   4   6     0.00  -0.00  -0.00    -0.00  -0.00  -0.00    -0.18  -0.43   0.65
   5   8    -0.00  -0.00   0.00     0.00   0.00  -0.00     0.11   0.32  -0.48
   6   8    -0.00   0.00  -0.00    -0.00   0.00  -0.00    -0.01   0.04  -0.04
   7   6    -0.00  -0.00  -0.00    -0.00   0.00   0.00    -0.01  -0.00   0.02
   8   6     0.00  -0.00  -0.00     0.00  -0.00   0.00     0.00  -0.00  -0.01
   9   1     0.12  -0.61   0.33     0.25  -0.16  -0.18    -0.01  -0.00   0.01
  10   1    -0.36  -0.34  -0.19    -0.11   0.50   0.29     0.00   0.00  -0.00
  11   1     0.39   0.13   0.09     0.19  -0.08   0.65     0.00  -0.00   0.00
  12   1     0.02  -0.02  -0.02     0.01   0.09   0.04    -0.01  -0.00   0.00
  13   1    -0.03   0.00   0.00     0.03  -0.02   0.10    -0.00  -0.00   0.00
  14   1     0.02  -0.00  -0.00    -0.01   0.02   0.01     0.06   0.01  -0.01
  15   1    -0.01  -0.00  -0.01    -0.01  -0.01   0.02    -0.01  -0.01   0.03
  16   1     0.00   0.00   0.00     0.00  -0.00  -0.00     0.02  -0.00  -0.03
  17   1    -0.00   0.00   0.00     0.00  -0.00   0.00     0.01  -0.03   0.00
  18   1    -0.00  -0.00   0.00     0.00   0.00  -0.00     0.01   0.01   0.01
  19   1     0.00   0.00  -0.00    -0.00  -0.00   0.00    -0.00   0.00  -0.00
  20   1     0.00  -0.00   0.00    -0.00   0.00  -0.00     0.00   0.01   0.00
                     43                     44                     45
                        a                      a                      a 
 Frequencies --  2947.1513              2971.4032              2986.8538
 Red. masses --     1.7177                 1.9428                 1.5387
 Frc consts  --     0.0000                 0.0000                 0.0000
 IR Inten    --    29.2555                42.3156                24.1527
 Raman Activ --     0.0000                 0.0000                 0.0000
 Depolar     --     0.0000                 0.0000                 0.0000
 Atom AN      X      Y      Z        X      Y      Z        X      Y      Z
   1   6     0.00   0.00  -0.00     0.00  -0.02   0.01     0.01  -0.00   0.01
   2   6    -0.00   0.00   0.00    -0.07   0.26  -0.08     0.02   0.01  -0.18
   3   6     0.00  -0.00   0.00     0.02  -0.06   0.00    -0.04   0.10   0.05
   4   6    -0.00   0.00  -0.00     0.00  -0.00   0.00    -0.00   0.00  -0.00
   5   8    -0.00  -0.00   0.00     0.00   0.00   0.00    -0.00  -0.00   0.00
   6   8     0.01  -0.00  -0.01     0.00  -0.00  -0.00    -0.00   0.00   0.00
   7   6    -0.03   0.02  -0.25    -0.00   0.00  -0.00     0.00  -0.01   0.00
   8   6    -0.00  -0.00   0.01    -0.00   0.00   0.00     0.00  -0.00  -0.00
   9   1    -0.00  -0.00  -0.00     0.01  -0.00   0.01    -0.02  -0.02  -0.02
  10   1     0.00  -0.00   0.00    -0.00   0.03  -0.05     0.00   0.02  -0.04
  11   1    -0.00   0.00   0.00    -0.02   0.06   0.02     0.00   0.00   0.00
  12   1    -0.00   0.00  -0.00     0.02  -0.25   0.46     0.05  -0.39   0.62
  13   1     0.00  -0.00  -0.00     0.22  -0.71  -0.17    -0.11   0.37   0.05
  14   1    -0.00   0.00  -0.00    -0.01   0.03  -0.07    -0.02   0.08  -0.09
  15   1     0.00  -0.00  -0.00    -0.07   0.20   0.05     0.15  -0.45  -0.10
  16   1    -0.01   0.01  -0.04     0.00  -0.00   0.00    -0.01   0.03  -0.01
  17   1     0.08  -0.09   0.96    -0.00   0.00   0.00     0.00  -0.00   0.00
  18   1    -0.01   0.01  -0.00     0.00  -0.00   0.00    -0.00   0.00  -0.00
  19   1    -0.00   0.00  -0.06    -0.00   0.00  -0.00     0.00  -0.00   0.00
  20   1     0.01  -0.00  -0.00    -0.00   0.00   0.00    -0.00   0.00   0.00
                     46                     47                     48
                        a                      a                      a 
 Frequencies --  2990.3686              2991.2167              3014.2955
 Red. masses --     1.6851                 1.7400                 1.7841
 Frc consts  --     0.0000                 0.0000                 0.0000
 IR Inten    --    31.5037                25.3688                28.7018
 Raman Activ --     0.0000                 0.0000                 0.0000
 Depolar     --     0.0000                 0.0000                 0.0000
 Atom AN      X      Y      Z        X      Y      Z        X      Y      Z
   1   6    -0.01  -0.01  -0.01    -0.00  -0.00  -0.00    -0.01   0.00  -0.02
   2   6    -0.03   0.07   0.09    -0.01   0.02   0.02     0.00  -0.02   0.03
   3   6    -0.06   0.19   0.05    -0.02   0.05   0.01     0.04  -0.15   0.21
   4   6    -0.00   0.01   0.00     0.00   0.00   0.00     0.00  -0.01   0.01
   5   8     0.00   0.00  -0.00     0.00  -0.00   0.00    -0.00   0.00  -0.00
   6   8     0.00  -0.00   0.00    -0.01   0.00   0.00    -0.00   0.00  -0.00
   7   6     0.02  -0.05   0.02    -0.09   0.22  -0.07     0.00  -0.00   0.00
   8   6    -0.00   0.01  -0.00     0.02  -0.02   0.01     0.00  -0.00  -0.00
   9   1     0.03   0.02   0.03     0.01   0.00   0.01     0.02   0.01   0.02
  10   1    -0.00  -0.02   0.02    -0.00  -0.00   0.00     0.00  -0.03   0.05
  11   1    -0.01   0.04   0.01    -0.00   0.01   0.00    -0.00   0.01  -0.00
  12   1    -0.02   0.17  -0.25    -0.00   0.03  -0.04    -0.01   0.06  -0.10
  13   1     0.12  -0.40  -0.07     0.03  -0.08  -0.02    -0.01   0.02   0.01
  14   1    -0.01   0.03  -0.00    -0.00   0.01  -0.00    -0.12   0.51  -0.80
  15   1     0.24  -0.72  -0.16     0.06  -0.19  -0.04    -0.01   0.03   0.04
  16   1    -0.08   0.20  -0.06     0.34  -0.83   0.24    -0.00   0.00  -0.00
  17   1     0.00  -0.01  -0.00    -0.01   0.03  -0.00     0.00   0.00  -0.00
  18   1     0.01  -0.03   0.01    -0.04   0.10  -0.03    -0.00   0.01  -0.00
  19   1    -0.00   0.00   0.01     0.00  -0.00  -0.02     0.00  -0.00   0.01
  20   1     0.00   0.00  -0.00    -0.02  -0.00   0.01    -0.00   0.00   0.00
                     49                     50                     51
                        a                      a                      a 
 Frequencies --  3038.2647              3039.7673              3041.1790
 Red. masses --     1.9602                 1.8015                 1.8541
 Frc consts  --     0.0000                 0.0000                 0.0000
 IR Inten    --    72.6741                36.2581                61.9442
 Raman Activ --     0.0000                 0.0000                 0.0000
 Depolar     --     0.0000                 0.0000                 0.0000
 Atom AN      X      Y      Z        X      Y      Z        X      Y      Z
   1   6     0.06  -0.26   0.11     0.00  -0.01  -0.01     0.06   0.12   0.24
   2   6     0.01  -0.03   0.02     0.00  -0.00  -0.00    -0.00   0.01   0.02
   3   6     0.00  -0.00   0.00     0.00  -0.00   0.00     0.00  -0.00   0.01
   4   6     0.00  -0.00   0.00     0.00   0.00   0.00     0.00  -0.00   0.00
   5   8    -0.00   0.00  -0.00    -0.00  -0.00   0.00     0.00   0.00  -0.00
   6   8    -0.00   0.00  -0.00    -0.00   0.00  -0.00    -0.00   0.00  -0.00
   7   6     0.00  -0.00   0.00    -0.01   0.04  -0.02    -0.00   0.00  -0.00
   8   6     0.00  -0.00   0.00    -0.10   0.22  -0.10    -0.00   0.01  -0.01
   9   1     0.02  -0.03   0.03     0.01   0.01   0.01    -0.35  -0.23  -0.30
  10   1    -0.03   0.31  -0.57     0.00  -0.01   0.01    -0.03   0.33  -0.49
  11   1    -0.21   0.64   0.15    -0.01   0.03   0.01     0.18  -0.51  -0.07
  12   1    -0.01   0.03  -0.06     0.00  -0.00   0.00    -0.01   0.03  -0.05
  13   1    -0.02   0.06   0.01    -0.00   0.01   0.00     0.01  -0.05  -0.01
  14   1    -0.00   0.01  -0.02    -0.00   0.00  -0.01    -0.01   0.03  -0.04
  15   1    -0.00   0.01   0.00     0.00  -0.00   0.00     0.01  -0.03  -0.00
  16   1    -0.00   0.00  -0.00     0.04  -0.11   0.03     0.00  -0.00   0.00
  17   1     0.00  -0.00  -0.00     0.00   0.00   0.02     0.00   0.00   0.00
  18   1    -0.01   0.02  -0.01     0.36  -0.84   0.25     0.01  -0.03   0.01
  19   1     0.00  -0.00  -0.00    -0.01   0.02   0.12    -0.00   0.00   0.01
  20   1     0.00  -0.00   0.00     0.00   0.03  -0.02    -0.00   0.00  -0.00
                     52                     53                     54
                        a                      a                      a 
 Frequencies --  3048.6013              3049.8600              3062.6240
 Red. masses --     1.3405                 1.6220                 1.7492
 Frc consts  --     0.0000                 0.0000                 0.0000
 IR Inten    --    37.2346                26.8142                22.9155
 Raman Activ --     0.0000                 0.0000                 0.0000
 Depolar     --     0.0000                 0.0000                 0.0000
 Atom AN      X      Y      Z        X      Y      Z        X      Y      Z
   1   6     0.16   0.05   0.03     0.01   0.00  -0.00     0.00   0.00   0.00
   2   6     0.00   0.00   0.00     0.00   0.00   0.00    -0.00   0.00   0.00
   3   6     0.00   0.00  -0.00    -0.00   0.00  -0.00    -0.00   0.00   0.00
   4   6    -0.00  -0.00   0.00    -0.00  -0.00  -0.00     0.00  -0.00   0.00
   5   8     0.00   0.00  -0.00     0.00  -0.00   0.00     0.00   0.00  -0.00
   6   8     0.00  -0.00   0.00     0.00   0.00  -0.00    -0.00  -0.00  -0.00
   7   6     0.00  -0.00   0.00    -0.00   0.00  -0.02    -0.01   0.01   0.01
   8   6     0.00  -0.00   0.01    -0.01  -0.01  -0.23    -0.23   0.02   0.11
   9   1    -0.53  -0.37  -0.50    -0.02  -0.01  -0.02    -0.00  -0.00  -0.00
  10   1     0.04  -0.19   0.34     0.00  -0.01   0.02     0.00   0.00   0.00
  11   1    -0.10   0.37   0.08    -0.00   0.02   0.00     0.00  -0.00   0.00
  12   1     0.00   0.01  -0.01     0.00   0.00  -0.00    -0.00   0.00  -0.00
  13   1     0.01  -0.01  -0.00     0.00  -0.00  -0.00     0.00  -0.00  -0.00
  14   1     0.00  -0.00   0.00     0.00  -0.00   0.01    -0.00   0.00  -0.00
  15   1     0.00  -0.00  -0.00    -0.00   0.00  -0.00     0.00  -0.00  -0.00
  16   1     0.00  -0.00   0.00     0.00  -0.01   0.00     0.01  -0.02   0.01
  17   1    -0.00   0.00  -0.00     0.00  -0.01   0.05    -0.00   0.00  -0.02
  18   1    -0.00   0.00   0.00    -0.05   0.13  -0.07    -0.03   0.01   0.01
  19   1    -0.00   0.00  -0.04     0.04  -0.07   0.95    -0.03   0.01  -0.05
  20   1    -0.01   0.00   0.00     0.06  -0.00  -0.05     0.89  -0.09  -0.36
