      -----------------------------------------------------------      
     |                   =====================                   |     
     |                           x T B                           |     
     |                   =====================                   |     
     |                         S. Grimme                         |     
     |          Mulliken Center for Theoretical Chemistry        |     
     |                    University of Bonn                     |     
      -----------------------------------------------------------      

   * xtb version 6.7.1 (edcfbbe) compiled by 'albert@albert-system' on 2024-07-22

   xtb is free software: you can redistribute it and/or modify it under
   the terms of the GNU Lesser General Public License as published by
   the Free Software Foundation, either version 3 of the License, or
   (at your option) any later version.
   
   xtb is distributed in the hope that it will be useful,
   but WITHOUT ANY WARRANTY; without even the implied warranty of
   MERCHANTABILITY or FITNESS FOR A PARTICULAR PURPOSE.  See the
   GNU Lesser General Public License for more details.
   
   Cite this work as:
   * C. Bannwarth, E. Caldeweyher, S. Ehlert, A. Hansen, P. Pracht,
     J. Seibert, S. Spicher, S. Grimme, WIREs Comput. Mol. Sci., 2020, 11,
     e01493. DOI: 10.1002/wcms.1493
   
   for GFN2-xTB:
   * C. Bannwarth, S. Ehlert and S. Grimme., J. Chem. Theory Comput., 2019,
     15, 1652-1671. DOI: 10.1021/acs.jctc.8b01176
   for GFN1-xTB:
   * S. Grimme, C. Bannwarth, P. Shushkov, J. Chem. Theory Comput., 2017,
     13, 1989-2009. DOI: 10.1021/acs.jctc.7b00118
   for GFN0-xTB:
   * P. Pracht, E. Caldeweyher, S. Ehlert, S. Grimme, ChemRxiv, 2019, preprint.
     DOI: 10.26434/chemrxiv.8326202.v1
   for GFN-FF:
   * S. Spicher and S. Grimme, Angew. Chem. Int. Ed., 2020, 59, 15665-15673.
     DOI: 10.1002/anie.202004239
   
   for ALPB and GBSA implicit solvation:
   * S. Ehlert, M. Stahn, S. Spicher, S. Grimme, J. Chem. Theory Comput.,
     2021, 17, 4250-4261. DOI: 10.1021/acs.jctc.1c00471
   
   for ddCOSMO and CPCM-X implicit solvation:
   * M. Stahn, S. Ehlert, S. Grimme, J. Phys. Chem. A,
     2023, XX, XXXX-XXXX. DOI: 10.1021/acs.jpca.3c04382
   
   for DFT-D4:
   * E. Caldeweyher, C. Bannwarth and S. Grimme, J. Chem. Phys., 2017,
     147, 034112. DOI: 10.1063/1.4993215
   * E. Caldeweyher, S. Ehlert, A. Hansen, H. Neugebauer, S. Spicher,
     C. Bannwarth and S. Grimme, J. Chem. Phys., 2019, 150, 154122.
     DOI: 10.1063/1.5090222
   * E. Caldeweyher, J.-M. Mewes, S. Ehlert and S. Grimme, Phys. Chem. Chem. Phys.
     2020, 22, 8499-8512. DOI: 10.1039/D0CP00502A
   
   for sTDA-xTB:
   * S. Grimme and C. Bannwarth, J. Chem. Phys., 2016, 145, 054103.
     DOI: 10.1063/1.4959605
   
   in the mass-spec context:
   * V. Asgeirsson, C. Bauer and S. Grimme, Chem. Sci., 2017, 8, 4879.
     DOI: 10.1039/c7sc00601b
   * J. Koopman and S. Grimme, ACS Omega 2019, 4, 12, 15120-15133.
     DOI: 10.1021/acsomega.9b02011
   
   for metadynamics refer to:
   * S. Grimme, J. Chem. Theory Comput., 2019, 155, 2847-2862
     DOI: 10.1021/acs.jctc.9b00143
   
   for SPH calculations refer to:
   * S. Spicher and S. Grimme, J. Chem. Theory Comput., 2021, 17, 1701-1714
     DOI: 10.1021/acs.jctc.0c01306
   
   for ONIOM refer to:
   * C. Plett, A. Katbashev, S. Ehlert, S. Grimme, M. Bursch,
     Phys. Chem. Chem. Phys., 2023, 25, 17860-17868. DOI: 10.1039/D3CP02178E
   
   for DIPRO refer to:
   * J. Kohn, N. Gildemeister, S. Grimme, D. Fazzi, A. Hansen,
     J. Chem. Phys., 2023, just accepted.
   
   for PTB refer to:
   * S. Grimme, M. Mueller, A. Hansen, J. Chem. Phys., 2023, 158, 124111.
     DOI: 10.1063/5.0137838
   
   with help from (in alphabetical order)
   P. Atkinson, C. Bannwarth, F. Bohle, G. Brandenburg, E. Caldeweyher
   M. Checinski, S. Dohm, S. Ehlert, S. Ehrlich, I. Gerasimov, C. Hölzer
   A. Katbashev, J. Kohn, J. Koopman, C. Lavigne, S. Lehtola, F. März, M. Müller,
   F. Musil, H. Neugebauer, J. Pisarek, C. Plett, P. Pracht, F. Pultar,
   J. Seibert, P. Shushkov, S. Spicher, M. Stahn, M. Steiner, T. Strunk,
   J. Stückrath, T. Rose, and J. Unsleber
   
 * started run on 2025/04/11 at 15:53:55.302     
   ID    Z sym.   atoms
    1    6 C      1-4, 7, 8
    2    8 O      5, 6
    3    1 H      9-20

           -------------------------------------------------
          |                Calculation Setup                |
           -------------------------------------------------

          program call               : /srv/scratch/z5358697/.xtb/bin/xtb gas.coord --gfn2 --sp --chrg 0 --norestart --parallel 1
          hostname                   : k061
          coordinate file            : gas.coord
          omp threads                :                     1


           -------------------------------------------------
          |                 G F N 2 - x T B                 |
           -------------------------------------------------

        Reference                      10.1021/acs.jctc.8b01176
      * Hamiltonian:
        H0-scaling (s, p, d)           1.850000    2.230000    2.230000
        zeta-weighting                 0.500000
      * Dispersion:
        s8                             2.700000
        a1                             0.520000
        a2                             5.000000
        s9                             5.000000
      * Repulsion:
        kExp                           1.500000    1.000000
        rExp                           1.000000
      * Coulomb:
        alpha                          2.000000
        third order                    shell-resolved
        anisotropic                    true
        a3                             3.000000
        a5                             4.000000
        cn-shift                       1.200000
        cn-exp                         4.000000
        max-rad                        5.000000


          ...................................................
          :                      SETUP                      :
          :.................................................:
          :  # basis functions                  44          :
          :  # atomic orbitals                  44          :
          :  # shells                           28          :
          :  # electrons                        48          :
          :  max. iterations                   250          :
          :  Hamiltonian                  GFN2-xTB          :
          :  restarted?                      false          :
          :  GBSA solvation                  false          :
          :  PC potential                    false          :
          :  electronic temp.          300.0000000     K    :
          :  accuracy                    1.0000000          :
          :  -> integral cutoff          0.2500000E+02      :
          :  -> integral neglect         0.1000000E-07      :
          :  -> SCF convergence          0.1000000E-05 Eh   :
          :  -> wf. convergence          0.1000000E-03 e    :
          :  Broyden damping             0.4000000          :
          :  net charge                          0          :
          :  unpaired electrons                  0          :
          ...................................................

 iter      E             dE          RMSdq      gap      omega  full diag
   1    -27.3554373 -0.273554E+02  0.397E+00    5.96       0.0  T
   2    -27.4261700 -0.707327E-01  0.205E+00    4.73       1.0  T
   3    -27.4291621 -0.299213E-02  0.114E+00    5.21       1.0  T
   4    -27.4314756 -0.231351E-02  0.180E-01    4.92       1.0  T
   5    -27.4317700 -0.294367E-03  0.745E-02    4.99       1.0  T
   6    -27.4317760 -0.600551E-05  0.234E-02    4.99       1.0  T
   7    -27.4317773 -0.134375E-05  0.753E-03    4.99       3.0  T
   8    -27.4317775 -0.146705E-06  0.180E-03    4.99      12.4  T
   9    -27.4317775 -0.599019E-08  0.839E-04    4.99      26.7  T
  10    -27.4317775 -0.191408E-08  0.272E-04    4.99      82.1  T

   *** convergence criteria satisfied after 10 iterations ***

         #    Occupation            Energy/Eh            Energy/eV
      -------------------------------------------------------------
         1        2.0000           -0.7412884             -20.1715
       ...           ...                  ...                  ...
        18        2.0000           -0.4692981             -12.7703
        19        2.0000           -0.4678610             -12.7311
        20        2.0000           -0.4606091             -12.5338
        21        2.0000           -0.4467660             -12.1571
        22        2.0000           -0.4388129             -11.9407
        23        2.0000           -0.4337995             -11.8043
        24        2.0000           -0.4087842             -11.1236 (HOMO)
        25                         -0.2255548              -6.1377 (LUMO)
        26                         -0.0044936              -0.1223
        27                          0.0971622               2.6439
        28                          0.1102293               2.9995
        29                          0.1144256               3.1137
       ...                                ...                  ...
        44                          0.6267202              17.0539
      -------------------------------------------------------------
                  HL-Gap            0.1832295 Eh            4.9859 eV
             Fermi-level           -0.3171695 Eh           -8.6306 eV

 SCC (total)                   0 d,  0 h,  0 min,  0.023 sec
 SCC setup                      ...        0 min,  0.000 sec (  1.359%)
 Dispersion                     ...        0 min,  0.000 sec (  0.852%)
 classical contributions        ...        0 min,  0.000 sec (  0.175%)
 integral evaluation            ...        0 min,  0.003 sec ( 13.676%)
 iterations                     ...        0 min,  0.015 sec ( 62.300%)
 molecular gradient             ...        0 min,  0.005 sec ( 20.915%)
 printout                       ...        0 min,  0.000 sec (  0.648%)

         :::::::::::::::::::::::::::::::::::::::::::::::::::::
         ::                     SUMMARY                     ::
         :::::::::::::::::::::::::::::::::::::::::::::::::::::
         :: total energy             -27.115088605306 Eh    ::
         :: gradient norm              0.027286433554 Eh/a0 ::
         :: HOMO-LUMO gap              4.985927206625 eV    ::
         ::.................................................::
         :: SCC energy               -27.431800116558 Eh    ::
         :: -> isotropic ES            0.048280022675 Eh    ::
         :: -> anisotropic ES          0.002481247352 Eh    ::
         :: -> anisotropic XC          0.007707133129 Eh    ::
         :: -> dispersion             -0.011068896146 Eh    ::
         :: repulsion energy           0.316711511252 Eh    ::
         :: add. restraining           0.000000000000 Eh    ::
         :: total charge              -0.000000000000 e     ::
         :::::::::::::::::::::::::::::::::::::::::::::::::::::

           -------------------------------------------------
          |                Property Printout                |
           -------------------------------------------------

    * Orbital Energies and Occupations

         #    Occupation            Energy/Eh            Energy/eV
      -------------------------------------------------------------
         1        2.0000           -0.7412884             -20.1715
       ...           ...                  ...                  ...
        12        2.0000           -0.5249217             -14.2838
        13        2.0000           -0.5161370             -14.0448
        14        2.0000           -0.5013165             -13.6415
        15        2.0000           -0.4895776             -13.3221
        16        2.0000           -0.4861871             -13.2298
        17        2.0000           -0.4759533             -12.9513
        18        2.0000           -0.4692981             -12.7703
        19        2.0000           -0.4678610             -12.7311
        20        2.0000           -0.4606091             -12.5338
        21        2.0000           -0.4467660             -12.1571
        22        2.0000           -0.4388129             -11.9407
        23        2.0000           -0.4337995             -11.8043
        24        2.0000           -0.4087842             -11.1236 (HOMO)
        25                         -0.2255548              -6.1377 (LUMO)
        26                         -0.0044936              -0.1223
        27                          0.0971622               2.6439
        28                          0.1102293               2.9995
        29                          0.1144256               3.1137
        30                          0.1318672               3.5883
        31                          0.1436289               3.9083
        32                          0.1460418               3.9740
        33                          0.1531311               4.1669
        34                          0.1588172               4.3216
        35                          0.1702184               4.6319
       ...                                ...                  ...
        44                          0.6267202              17.0539
      -------------------------------------------------------------
                  HL-Gap            0.1832295 Eh            4.9859 eV
             Fermi-level           -0.3171695 Eh           -8.6306 eV

     #   Z          covCN         q      C6AA      α(0)
     1   6 C        3.753    -0.106    22.587     6.777
     2   6 C        3.802    -0.048    21.435     6.591
     3   6 C        3.804    -0.091    22.226     6.712
     4   6 C        2.716     0.355    20.976     7.497
     5   8 O        0.856    -0.427    22.226     6.321
     6   8 O        1.703    -0.264    18.372     5.787
     7   6 C        3.695     0.082    19.375     6.297
     8   6 C        3.752    -0.116    22.784     6.807
     9   1 H        0.925     0.041     2.431     2.438
    10   1 H        0.925     0.040     2.448     2.447
    11   1 H        0.925     0.039     2.465     2.455
    12   1 H        0.924     0.036     2.502     2.474
    13   1 H        0.924     0.052     2.295     2.369
    14   1 H        0.924     0.069     2.100     2.266
    15   1 H        0.925     0.059     2.216     2.328
    16   1 H        0.924     0.054     2.268     2.355
    17   1 H        0.924     0.052     2.291     2.367
    18   1 H        0.925     0.059     2.210     2.325
    19   1 H        0.925     0.054     2.272     2.357
    20   1 H        0.925     0.060     2.204     2.322

 Mol. C6AA /au·bohr⁶  :       3018.401017
 Mol. C8AA /au·bohr⁸  :      64013.656134
 Mol. α(0) /au        :         81.292277


Wiberg/Mayer (AO) data.
largest (>0.10) Wiberg bond orders for each atom

 ---------------------------------------------------------------------------
     #   Z sym  total        # sym  WBO       # sym  WBO       # sym  WBO
 ---------------------------------------------------------------------------
     1   6 C    3.996 --     2 C    1.019    11 H    0.988    10 H    0.987
                             9 H    0.986
     2   6 C    3.993 --     1 C    1.019     3 C    0.987    12 H    0.979
                            13 H    0.977
     3   6 C    3.993 --     2 C    0.987    15 H    0.976     4 C    0.973
                            14 H    0.955
     4   6 C    3.915 --     5 O    1.734     6 O    1.152     3 C    0.973
     5   8 O    2.015 --     4 C    1.734     6 O    0.175
     6   8 O    2.314 --     4 C    1.152     7 C    0.930     5 O    0.175
     7   6 C    3.926 --     8 C    1.021    17 H    0.970    16 H    0.970
                             6 O    0.930
     8   6 C    3.991 --     7 C    1.021    18 H    0.985    20 H    0.985
                            19 H    0.983
     9   1 H    0.998 --     1 C    0.986
    10   1 H    0.998 --     1 C    0.987
    11   1 H    0.998 --     1 C    0.988
    12   1 H    0.999 --     2 C    0.979
    13   1 H    0.997 --     2 C    0.977
    14   1 H    0.995 --     3 C    0.955
    15   1 H    0.997 --     3 C    0.976
    16   1 H    0.997 --     7 C    0.970
    17   1 H    0.997 --     7 C    0.970
    18   1 H    0.997 --     8 C    0.985
    19   1 H    0.996 --     8 C    0.983
    20   1 H    0.996 --     8 C    0.985
 ---------------------------------------------------------------------------

Topologies differ in total number of bonds
Writing topology from bond orders to xtbtopo.mol

molecular dipole:
                 x           y           z       tot (Debye)
 q only:        0.270      -0.868       0.223
   full:        0.280      -0.916       0.208       2.493
molecular quadrupole (traceless):
                xx          xy          yy          xz          yz          zz
 q only:        9.209       0.756      -7.112       1.119       1.649      -2.097
  q+dip:        6.888       1.045      -7.538       0.920       1.829       0.650
   full:        7.605       1.190      -8.121       0.765       2.068       0.517


           -------------------------------------------------
          | TOTAL ENERGY              -27.115088605306 Eh   |
          | GRADIENT NORM               0.027286433554 Eh/α |
          | HOMO-LUMO GAP               4.985927206625 eV   |
           -------------------------------------------------

------------------------------------------------------------------------
 * finished run on 2025/04/11 at 15:53:55.362     
------------------------------------------------------------------------
 total:
 * wall-time:     0 d,  0 h,  0 min,  0.059 sec
 *  cpu-time:     0 d,  0 h,  0 min,  0.026 sec
 * ratio c/w:     0.437 speedup
 SCF:
 * wall-time:     0 d,  0 h,  0 min,  0.024 sec
 *  cpu-time:     0 d,  0 h,  0 min,  0.016 sec
 * ratio c/w:     0.670 speedup

