      -----------------------------------------------------------      
     |                   =====================                   |     
     |                           x T B                           |     
     |                   =====================                   |     
     |                         S. Grimme                         |     
     |          Mulliken Center for Theoretical Chemistry        |     
     |                    University of Bonn                     |     
      -----------------------------------------------------------      

   * xtb version 6.7.1 (edcfbbe) compiled by 'albert@albert-system' on 2024-07-22

   xtb is free software: you can redistribute it and/or modify it under
   the terms of the GNU Lesser General Public License as published by
   the Free Software Foundation, either version 3 of the License, or
   (at your option) any later version.
   
   xtb is distributed in the hope that it will be useful,
   but WITHOUT ANY WARRANTY; without even the implied warranty of
   MERCHANTABILITY or FITNESS FOR A PARTICULAR PURPOSE.  See the
   GNU Lesser General Public License for more details.
   
   Cite this work as:
   * C. Bannwarth, E. Caldeweyher, S. Ehlert, A. Hansen, P. Pracht,
     J. Seibert, S. Spicher, S. Grimme, WIREs Comput. Mol. Sci., 2020, 11,
     e01493. DOI: 10.1002/wcms.1493
   
   for GFN2-xTB:
   * C. Bannwarth, S. Ehlert and S. Grimme., J. Chem. Theory Comput., 2019,
     15, 1652-1671. DOI: 10.1021/acs.jctc.8b01176
   for GFN1-xTB:
   * S. Grimme, C. Bannwarth, P. Shushkov, J. Chem. Theory Comput., 2017,
     13, 1989-2009. DOI: 10.1021/acs.jctc.7b00118
   for GFN0-xTB:
   * P. Pracht, E. Caldeweyher, S. Ehlert, S. Grimme, ChemRxiv, 2019, preprint.
     DOI: 10.26434/chemrxiv.8326202.v1
   for GFN-FF:
   * S. Spicher and S. Grimme, Angew. Chem. Int. Ed., 2020, 59, 15665-15673.
     DOI: 10.1002/anie.202004239
   
   for ALPB and GBSA implicit solvation:
   * S. Ehlert, M. Stahn, S. Spicher, S. Grimme, J. Chem. Theory Comput.,
     2021, 17, 4250-4261. DOI: 10.1021/acs.jctc.1c00471
   
   for ddCOSMO and CPCM-X implicit solvation:
   * M. Stahn, S. Ehlert, S. Grimme, J. Phys. Chem. A,
     2023, XX, XXXX-XXXX. DOI: 10.1021/acs.jpca.3c04382
   
   for DFT-D4:
   * E. Caldeweyher, C. Bannwarth and S. Grimme, J. Chem. Phys., 2017,
     147, 034112. DOI: 10.1063/1.4993215
   * E. Caldeweyher, S. Ehlert, A. Hansen, H. Neugebauer, S. Spicher,
     C. Bannwarth and S. Grimme, J. Chem. Phys., 2019, 150, 154122.
     DOI: 10.1063/1.5090222
   * E. Caldeweyher, J.-M. Mewes, S. Ehlert and S. Grimme, Phys. Chem. Chem. Phys.
     2020, 22, 8499-8512. DOI: 10.1039/D0CP00502A
   
   for sTDA-xTB:
   * S. Grimme and C. Bannwarth, J. Chem. Phys., 2016, 145, 054103.
     DOI: 10.1063/1.4959605
   
   in the mass-spec context:
   * V. Asgeirsson, C. Bauer and S. Grimme, Chem. Sci., 2017, 8, 4879.
     DOI: 10.1039/c7sc00601b
   * J. Koopman and S. Grimme, ACS Omega 2019, 4, 12, 15120-15133.
     DOI: 10.1021/acsomega.9b02011
   
   for metadynamics refer to:
   * S. Grimme, J. Chem. Theory Comput., 2019, 155, 2847-2862
     DOI: 10.1021/acs.jctc.9b00143
   
   for SPH calculations refer to:
   * S. Spicher and S. Grimme, J. Chem. Theory Comput., 2021, 17, 1701-1714
     DOI: 10.1021/acs.jctc.0c01306
   
   for ONIOM refer to:
   * C. Plett, A. Katbashev, S. Ehlert, S. Grimme, M. Bursch,
     Phys. Chem. Chem. Phys., 2023, 25, 17860-17868. DOI: 10.1039/D3CP02178E
   
   for DIPRO refer to:
   * J. Kohn, N. Gildemeister, S. Grimme, D. Fazzi, A. Hansen,
     J. Chem. Phys., 2023, just accepted.
   
   for PTB refer to:
   * S. Grimme, M. Mueller, A. Hansen, J. Chem. Phys., 2023, 158, 124111.
     DOI: 10.1063/5.0137838
   
   with help from (in alphabetical order)
   P. Atkinson, C. Bannwarth, F. Bohle, G. Brandenburg, E. Caldeweyher
   M. Checinski, S. Dohm, S. Ehlert, S. Ehrlich, I. Gerasimov, C. Hölzer
   A. Katbashev, J. Kohn, J. Koopman, C. Lavigne, S. Lehtola, F. März, M. Müller,
   F. Musil, H. Neugebauer, J. Pisarek, C. Plett, P. Pracht, F. Pultar,
   J. Seibert, P. Shushkov, S. Spicher, M. Stahn, M. Steiner, T. Strunk,
   J. Stückrath, T. Rose, and J. Unsleber
   
 * started run on 2025/04/11 at 16:32:42.200     
   ID    Z sym.   atoms
    1    6 C      1, 2, 4-13, 15, 16
    2    1 H      3, 19-31
    3    8 O      14, 17, 18

           -------------------------------------------------
          |                Calculation Setup                |
           -------------------------------------------------

          program call               : /srv/scratch/z5358697/.xtb/bin/xtb xtb_opt.coord --opt normal --orca -I xtb_opt-xcontrol-inp
          hostname                   : k061
          coordinate file            : xtb_opt.coord
          omp threads                :                    13

           -------------------------------------------------
          |                   Orca driver                   |
           -------------------------------------------------
orca executable           : /apps/z_install_tree/linux-rocky8-ivybridge/gcc-12.2.0/orca-6.0.0-srtngmq3qlimg2qxbl6avaaiffipurdx/bin/orca
orca input file           : xtb_opt.inp
orca input line           : 
orca parallel             : true
orca number of threads    : 13
                         * ORCA takes the control...
  ------------------------------------------------------------------------

                                 *****************
                                 * O   R   C   A *
                                 *****************

                                            #,                                       
                                            ###                                      
                                            ####                                     
                                            #####                                    
                                            ######                                   
                                           ########,                                 
                                     ,,################,,,,,                         
                               ,,#################################,,                 
                          ,,##########################################,,             
                       ,#########################################, ''#####,          
                    ,#############################################,,   '####,        
                  ,##################################################,,,,####,       
                ,###########''''           ''''###############################       
              ,#####''   ,,,,##########,,,,          '''####'''          '####       
            ,##' ,,,,###########################,,,                        '##       
           ' ,,###''''                  '''############,,,                           
         ,,##''                                '''############,,,,        ,,,,,,###''
      ,#''                                            '''#######################'''  
     '                                                          ''''####''''         
             ,#######,   #######,   ,#######,      ##                                
            ,#'     '#,  ##    ##  ,#'     '#,    #''#        ,####,   ,####,        
            ##       ##  ##   ,#'  ##            #'  '#       #'       #'  '#        
            ##       ##  #######   ##           ,######,      #####,   #    #        
            '#,     ,#'  ##    ##  '#,     ,#' ,#      #,     #,   #   #,  ,#        
             '#######'   ##     ##  '#######'  #'      '#     '####' # '####'        



                #########################################################
                #                        -***-                          #
                #          Department of theory and spectroscopy        #
                #                                                       #
                #                      Frank Neese                      #
                #                                                       #
                #     Directorship, Architecture, Infrastructure        #
                #                    SHARK, DRIVERS                     #
                #        Core code/Algorithms in most modules           #
                #                                                       #
                #        Max Planck Institute fuer Kohlenforschung      #
                #                Kaiser Wilhelm Platz 1                 #
                #                 D-45470 Muelheim/Ruhr                 #
                #                      Germany                          #
                #                                                       #
                #                  All rights reserved                  #
                #                        -***-                          #
                #########################################################


                         Program Version 6.0.0  -   RELEASE  -


 With contributions from (in alphabetic order):
   Daniel Aravena         : Magnetic Suceptibility
   Michael Atanasov       : Ab Initio Ligand Field Theory (pilot matlab implementation)
   Alexander A. Auer      : GIAO ZORA, VPT2 properties, NMR spectrum
   Ute Becker             : All parallelization in ORCA, NUMFREQ, NUMCALC
   Giovanni Bistoni       : ED, misc. LED, open-shell LED, HFLD
   Martin Brehm           : Molecular dynamics
   Dmytro Bykov           : pre 5.0 version of the SCF Hessian
   Marcos Casanova-Páez   : Triplet and SCS-CIS(D). UHF-(DLPNO)-IP/EA/STEOM-CCSD. UHF-CVS-IP/STEOM-CCSD
   Vijay G. Chilkuri      : MRCI spin determinant printing, contributions to CSF-ICE
   Pauline Colinet        : FMM embedding
   Dipayan Datta          : RHF DLPNO-CCSD density
   Achintya Kumar Dutta   : EOM-CC, STEOM-CC
   Nicolas Foglia         : Exact transition moments, OPA infrastructure, MCD improvements
   Dmitry Ganyushin       : Spin-Orbit,Spin-Spin,Magnetic field MRCI
   Miquel Garcia          : C-PCM and meta-GGA Hessian, CCSD/C-PCM, Gaussian charge scheme
   Tiago L. C. Gouveia    : GS-ROHF, GS-ROCIS
   Yang Guo               : DLPNO-NEVPT2, F12-NEVPT2, CIM, IAO-localization
   Andreas Hansen         : Spin unrestricted coupled pair/coupled cluster methods
   Ingolf Harden          : AUTO-CI MPn and infrastructure 
   Benjamin Helmich-Paris : MC-RPA, TRAH-(SCF,CASSCF), AVAS, COSX integrals, SCF dyn. polar.
   Lee Huntington         : MR-EOM, pCC
   Robert Izsak           : Overlap fitted RIJCOSX, COSX-SCS-MP3, EOM
   Riya Kayal             : Wick's Theorem for AUTO-CI, AUTO-CI UHF-CCSDT
   Emily Kempfer          : AUTO-CI, RHF CISDT and CCSDT
   Christian Kollmar      : KDIIS, OOCD, Brueckner-CCSD(T), CCSD density, CASPT2, CASPT2-K, improved NEVPT2
   Axel Koslowski         : Symmetry handling
   Simone Kossmann        : Meta GGA functionals, TD-DFT gradient, OOMP2, (MP2 Hessian; deprecated post 5.0)
   Lucas Lang             : DCDCAS
   Marvin Lechner         : AUTO-CI (C++ implementation), FIC-MRCC
   Spencer Leger          : CASSCF response
   Dagmar Lenk            : GEPOL surface, SMD, ORCA-2-JSON
   Dimitrios Liakos       : Extrapolation schemes; Compound Job, initial MDCI parallelization
   Dimitrios Manganas     : Further ROCIS development; embedding schemes. LFT, Crystal Embedding
   Dimitrios Pantazis     : SARC Basis sets
   Anastasios Papadopoulos: AUTO-CI, single reference methods and gradients
   Taras Petrenko         : pre 6.0 DFT Hessian and TD-DFT gradient, (ASA, deprecated), ECA, 1-Electron XAS/XES, NRVS
   Peter Pinski           : DLPNO-MP2, DLPNO-MP2 Gradient
   Christoph Reimann      : Effective Core Potentials
   Marius Retegan         : Local ZFS, SOC
   Christoph Riplinger    : Optimizer, TS searches, QM/MM, DLPNO-CCSD(T), (RO)-DLPNO pert. Triples
   Michael Roemelt        : Original ROCIS implementation
   Masaaki Saitow         : Open-shell DLPNO-CCSD energy and density
   Barbara Sandhoefer     : DKH picture change effects
   Kantharuban Sivalingam : CASSCF convergence/infrastructure, NEVPT2 and variants, FIC-MRCI
   Bernardo de Souza      : ESD, SOC TD-DFT
   Georgi Stoychev        : AutoAux, RI-MP2 NMR, DLPNO-MP2 response, X2C
   Van Anh Tran           : RI-MP2 g-tensors
   Willem Van den Heuvel  : Paramagnetic NMR
   Zikuan Wang            : NOTCH, Electric field optimization 
   Frank Wennmohs         : Technical directorship and infrastructure
   Hang Xu                : AUTO-CI-Response properties 


 We gratefully acknowledge several colleagues who have allowed us to
 interface, adapt or use parts of their codes:
   Stefan Grimme, W. Hujo, H. Kruse, P. Pracht,  : VdW corrections, initial TS optimization,
                  C. Bannwarth, S. Ehlert,         DFT functionals, gCP, sTDA/sTD-DF
                  L. Wittmann, M. Mueller
   Ed Valeev, F. Pavosevic, A. Kumar             : LibInt (2-el integral package), F12 methods
   Garnet Chan, S. Sharma, J. Yang, R. Olivares  : DMRG
   Ulf Ekstrom                                   : XCFun DFT Library
   Mihaly Kallay                                 : mrcc  (arbitrary order and MRCC methods)
   Frank Weinhold                                : gennbo (NPA and NBO analysis)
   Simon Mueller                                 : openCOSMO-RS
   Christopher J. Cramer and Donald G. Truhlar   : smd solvation model
   Lars Goerigk                                  : TD-DFT with DH, B97 family of functionals
   V. Asgeirsson, H. Jonsson                     : NEB implementation
   FAccTs GmbH                                   : IRC, NEB, NEB-TS, DLPNO-Multilevel, CI-OPT
                                                   MM, QMMM, 2- and 3-layer-ONIOM, Crystal-QMMM,
                                                   LR-CPCM, SF, NACMEs, symmetry and pop. for TD-DFT,
                                                   nearIR, NL-DFT gradient (VV10), updates on ESD,
                                                   ML-optimized integration grids, MBIS, APM,
                                                   GOAT, DOCKER, SOLVATOR, interface openCOSMO-RS
   S Lehtola, MJT Oliveira, MAL Marques          : LibXC Library
   Liviu Ungur et al                             : ANISO software


 Your calculation uses the libint2 library for the computation of 2-el integrals
 For citations please refer to: http://libint.valeyev.net

 Your ORCA version has been built with support for libXC version: 6.2.2
 For citations please refer to: https://libxc.gitlab.io

 This ORCA versions uses:
   CBLAS   interface :  Fast vector & matrix operations
   LAPACKE interface :  Fast linear algebra routines
   SCALAPACK package :  Parallel linear algebra routines
   Shared memory     :  Shared parallel matrices
   BLAS/LAPACK       :  OpenBLAS 0.3.27  USE64BITINT DYNAMIC_ARCH NO_AFFINITY SkylakeX SINGLE_THREADED
        Core in use  :  SkylakeX
   Copyright (c) 2011-2014, The OpenBLAS Project




***************************************
The coordinates will be read from file: xtb_opt.xyz
***************************************


Your calculation utilizes the geometrical counterpoise correction gCP
Please cite in your paper:
H.Kruse, S. Grimme J.Chem.Phys., 136, (2012), 154101 
   

Your calculation utilizes the atom-pairwise dispersion correction
based on EEQ partial charges (D4)


Your calculation utilizes the SMD solvation module
Please cite in your paper:
A.V. Marenich, C.J. Cramer, D.G. Truhlar J. Phys. Chem. B, 113, (2009), 6378 

================================================================================

----- Orbital basis set information -----
Your calculation utilizes the basis: def2-mTZVPP
   Stefan Grimme, Andreas Hansen, Sebastian Ehlert, and Jan-Michael Mewes 
   J. Chem. Phys. 154, 064103 (2021). DOI: 10.1063/5.0040021

----- AuxJ basis set information -----
Your calculation utilizes the auxiliary basis: def2/J
   F. Weigend, Phys. Chem. Chem. Phys. 8, 1057 (2006).

================================================================================
                                        WARNINGS
                       Please study these warnings very carefully!
================================================================================

WARNING: Old DensityContainer found on disk!
         Will remove this file - 
         If you want to keep old densities, please start your calculation with a different basename. 

Using LibXC functional ID 497 : Re-regularized SCAN exchange by Furness et al
[ 1]  J. W. Furness, A. D. Kaplan, J. Ning, J. P. Perdew, and J. Sun.,  J. Phys. Chem. Lett. 11, 8208-8215 (2020)
[ 2]  J. W. Furness, A. D. Kaplan, J. Ning, J. P. Perdew, and J. Sun.,  J. Phys. Chem. Lett. 11, 9248-9248 (2020)
Using LibXC functional ID 498 : Re-regularized SCAN correlation by Furness et al
[ 1]  J. W. Furness, A. D. Kaplan, J. Ning, J. P. Perdew, and J. Sun.,  J. Phys. Chem. Lett. 11, 8208-8215 (2020)
[ 2]  J. W. Furness, A. D. Kaplan, J. Ning, J. P. Perdew, and J. Sun.,  J. Phys. Chem. Lett. 11, 9248-9248 (2020)
Using LibXC functional ID 497 : Re-regularized SCAN exchange by Furness et al
[ 1]  J. W. Furness, A. D. Kaplan, J. Ning, J. P. Perdew, and J. Sun.,  J. Phys. Chem. Lett. 11, 8208-8215 (2020)
[ 2]  J. W. Furness, A. D. Kaplan, J. Ning, J. P. Perdew, and J. Sun.,  J. Phys. Chem. Lett. 11, 9248-9248 (2020)
Using LibXC functional ID 498 : Re-regularized SCAN correlation by Furness et al
[ 1]  J. W. Furness, A. D. Kaplan, J. Ning, J. P. Perdew, and J. Sun.,  J. Phys. Chem. Lett. 11, 8208-8215 (2020)
[ 2]  J. W. Furness, A. D. Kaplan, J. Ning, J. P. Perdew, and J. Sun.,  J. Phys. Chem. Lett. 11, 9248-9248 (2020)

================================================================================
                                       INPUT FILE
================================================================================
NAME = xtb_opt.inp
|  1> ! r2scan-3c def2/J RI DEFGRID2 scfconv7 ENGRAD tightSCF miniprint
|  2> %cpcm
|  3>     smd true
|  4>     smdsolvent "water"
|  5> end
|  6> * xyzfile 0 1 xtb_opt.xyz
|  7> 
|  8>                          ****END OF INPUT****
================================================================================

                     *******************************
                     * Energy+Gradient Calculation *
                     *******************************

---------------------------------
CARTESIAN COORDINATES (ANGSTROEM)
---------------------------------
  C     -3.633331    0.024114    1.893632
  C     -3.067435    0.512954    0.562252
  H     -3.172350    1.600679    0.487964
  C     -1.593122    0.179889    0.399717
  C     -1.175342   -1.173346    0.372814
  C      0.152501   -1.501410    0.239241
  C      1.143094   -0.494342    0.126997
  C      2.518098   -0.811229   -0.008617
  C      3.444745    0.203953   -0.116442
  C      3.038294    1.561787   -0.093344
  C      1.713720    1.883103    0.037467
  C      0.725238    0.872070    0.151109
  C     -0.649009    1.176766    0.284561
  O      4.794552    0.018441   -0.252133
  C      5.269985   -1.336323   -0.266630
  C     -3.826724   -0.076764   -0.607639
  O     -4.583884   -1.028703   -0.555357
  O     -3.555917    0.575908   -1.762107
  H     -3.549460   -1.061734    1.984416
  H     -3.077925    0.483316    2.715694
  H     -4.687850    0.297953    1.989866
  H     -1.917607   -1.962757    0.456642
  H      0.459257   -2.543366    0.217476
  H      2.809462   -1.854766   -0.024713
  H      3.797553    2.332477   -0.181012
  H      1.405222    2.924465    0.055406
  H     -0.954153    2.220246    0.297625
  H      5.023136   -1.846900    0.671168
  H      6.353034   -1.268437   -0.373226
  H      4.850245   -1.889450   -1.114429
  H     -4.045001    0.138003   -2.480599

----------------------------
CARTESIAN COORDINATES (A.U.)
----------------------------
  NO LB      ZA    FRAG     MASS         X           Y           Z
   0 C     6.0000    0    12.011   -6.866000    0.045569    3.578446
   1 C     6.0000    0    12.011   -5.796612    0.969343    1.062502
   2 H     1.0000    0     1.008   -5.994872    3.024844    0.922118
   3 C     6.0000    0    12.011   -3.010565    0.339941    0.755355
   4 C     6.0000    0    12.011   -2.221075   -2.217303    0.704516
   5 C     6.0000    0    12.011    0.288184   -2.837253    0.452100
   6 C     6.0000    0    12.011    2.160135   -0.934171    0.239990
   7 C     6.0000    0    12.011    4.758515   -1.533000   -0.016284
   8 C     6.0000    0    12.011    6.509625    0.385414   -0.220044
   9 C     6.0000    0    12.011    5.741544    2.951350   -0.176394
  10 C     6.0000    0    12.011    3.238461    3.558549    0.070802
  11 C     6.0000    0    12.011    1.370501    1.647973    0.285555
  12 C     6.0000    0    12.011   -1.226449    2.223765    0.537742
  13 O     8.0000    0    15.999    9.060390    0.034848   -0.476463
  14 C     6.0000    0    12.011    9.958829   -2.525284   -0.503857
  15 C     6.0000    0    12.011   -7.231461   -0.145062   -1.148271
  16 O     8.0000    0    15.999   -8.662285   -1.943966   -1.049473
  17 O     8.0000    0    15.999   -6.719709    1.088309   -3.329900
  18 H     1.0000    0     1.008   -6.707507   -2.006386    3.750002
  19 H     1.0000    0     1.008   -5.816436    0.913335    5.131918
  20 H     1.0000    0     1.008   -8.858753    0.563049    3.760302
  21 H     1.0000    0     1.008   -3.623751   -3.709074    0.862929
  22 H     1.0000    0     1.008    0.867871   -4.806266    0.410969
  23 H     1.0000    0     1.008    5.309114   -3.504999   -0.046701
  24 H     1.0000    0     1.008    7.176335    4.407743   -0.342064
  25 H     1.0000    0     1.008    2.655485    5.526437    0.104702
  26 H     1.0000    0     1.008   -1.803088    4.195657    0.562429
  27 H     1.0000    0     1.008    9.492352   -3.490134    1.268324
  28 H     1.0000    0     1.008   12.005495   -2.396998   -0.705295
  29 H     1.0000    0     1.008    9.165635   -3.570543   -2.105966
  30 H     1.0000    0     1.008   -7.643943    0.260787   -4.687653

------------------------------------------------------------------------------
                   ___                                                        
                  /   \      - P O W E R E D   B Y -                         
                 /     \                                                     
                 |  |  |   _    _      __       _____    __    __             
                 |  |  |  | |  | |    /  \     |  _  \  |  |  /  |          
                  \  \/   | |  | |   /    \    | | | |  |  | /  /          
                 / \  \   | |__| |  /  /\  \   | |_| |  |  |/  /          
                |  |  |   |  __  | /  /__\  \  |    /   |      \           
                |  |  |   | |  | | |   __   |  |    \   |  |\   \          
                \     /   | |  | | |  |  |  |  | |\  \  |  | \   \       
                 \___/    |_|  |_| |__|  |__|  |_| \__\ |__|  \__/        
                                                                              
                      - O R C A' S   B I G   F R I E N D -                    
                                      &                                       
                       - I N T E G R A L  F E E D E R -                       
                                                                              
 v1 FN, 2020, v2 2021, v3 2022-2024                                           
------------------------------------------------------------------------------


----------------------
SHARK INTEGRAL PACKAGE
----------------------

Number of atoms                             ...     31
Number of basis functions                   ...    408
Number of shells                            ...    198
Maximum angular momentum                    ...      2
Integral batch strategy                     ... SHARK/LIBINT Hybrid
RI-J (if used) integral strategy            ... SPLIT-RIJ (Revised 2003 algorithm where possible)
Printlevel                                  ...      1
Contraction scheme used                     ... SEGMENTED contraction
Prescreening option                         ... SCHWARTZ
   Thresh                                   ... 3.000e-11
   Tcut                                     ... 1.000e-12
   Tpresel                                  ... 1.000e-12 
Coulomb Range Separation                    ... NOT USED
Exchange Range Separation                   ... NOT USED
Multipole approximations                    ... NOT USED
Finite Nucleus Model                        ... NOT USED
CABS basis                                  ... NOT available
Auxiliary Coulomb fitting basis             ... AVAILABLE
   # of basis functions in Aux-J            ...    987
   # of shells in Aux-J                     ...    325
   Maximum angular momentum in Aux-J        ...      4
Auxiliary J/K fitting basis                 ... NOT available
Auxiliary Correlation fitting basis         ... NOT available
Auxiliary 'external' fitting basis          ... NOT available

Checking pre-screening integrals            ... done (  0.0 sec) Dimension = 198
Check shell pair data                       ... done (  0.0 sec)
Shell pair information
Shell pair cut-off parameter TPreSel        ...   1.0e-12
Total number of shell pairs                 ...     19701
Shell pairs after pre-screening             ...     14542
Total number of primitive shell pairs       ...     72426
Primitive shell pairs kept                  ...     34797
          la=0 lb=0:   4547 shell pairs
          la=1 lb=0:   5574 shell pairs
          la=1 lb=1:   1711 shell pairs
          la=2 lb=0:   1586 shell pairs
          la=2 lb=1:    975 shell pairs
          la=2 lb=2:    149 shell pairs

Calculating one electron integrals          ... done (  0.1 sec)
Calculating RI/J V-Matrix + Cholesky decomp.... done (  0.2 sec)
Calculating Nuclear repulsion               ... done (  0.0 sec) ENN=   1130.807958879610 Eh

Diagonalization of the overlap matrix:
Smallest eigenvalue                        ... 1.331e-05
Time for diagonalization                   ...    0.024 sec
Threshold for overlap eigenvalues          ... 1.000e-07
Number of eigenvalues below threshold      ... 0
Time for construction of square roots      ...    0.030 sec
Total time needed                          ...    0.075 sec

-------------------
DFT GRID GENERATION
-------------------

General Integration Accuracy     IntAcc      ... 4.388
Radial Grid Type                 RadialGrid  ... OptM3 with GC (2021)
Angular Grid (max. ang.)         AngularGrid ... 4 (Lebedev-302)
Angular grid pruning method      GridPruning ... 4 (adaptive)
Weight generation scheme         WeightScheme... mBecke (2022)
Basis function cutoff            BFCut       ... 1.0000e-11
Integration weight cutoff        WCut        ... 1.0000e-14
Partially contracted basis set               ... off
Rotationally invariant grid construction     ... off
Angular grids for H and He will be reduced by one unit
Diffuse basis detected: some atoms will have their outermost
                        angular grid increased by 1.

Total number of grid points                  ...   147338
Total number of batches                      ...     2319
Average number of points per batch           ...       63
Average number of grid points per atom       ...     4753
Initializing property integral containers    ... done (  0.1 sec)

SHARK setup successfully completed in   3.0 seconds

Maximum memory used throughout the entire STARTUP-calculation: 72.9 MB
Occupation numbers will be reassigned to an Aufbau configuration
             **** ENERGY FILE WAS UPDATED (xtb_opt.en.tmp) ****
Finished Guess after   0.7 sec
Maximum memory used throughout the entire GUESS-calculation: 35.7 MB
--------------------
CPCM SOLVATION MODEL
--------------------
CPCM parameters:
  Epsilon                                         ...      78.3550
  Refrac                                          ...       1.3328
  Rsolv                                           ...       1.3000
  Surface type                                    ... GAUSSIAN VDW
  Discretization scheme                           ... Constant charge density
    Threshold for H atoms                         ...       5.0000 (charges/Ang^2)
    Threshold for non-H atoms                     ...       5.0000 (charges/Ang^2)
  Epsilon function type                           ...         CPCM
Solvent:                                          ... WATER
SMD-CDS solvent descriptors:
  Soln                                            ...       1.3328
  Soln25                                          ...       1.3323
  Sola                                            ...       0.0000
  Solb                                            ...       0.0000
  Solg                                            ...       0.0000
  Solc                                            ...       0.0000
  Solh                                            ...       0.0000
Radii:
  Scheme                                          ... Element-dependent radii
  Radius for C  used is    3.4960 Bohr (=   1.8500 Ang.)
  Radius for H  used is    2.2677 Bohr (=   1.2000 Ang.)
  Radius for O  used is    2.8724 Bohr (=   1.5200 Ang.)
Calculating surface                               ...        done! (  0.0s)
Cavity surface points                             ...         2311
Cavity Volume                                     ...    1553.8762
Cavity Surface-area                               ...     924.4244
Calculating surface distance matrix               ...        done! (  0.1s)
Performing Cholesky decomposition & store         ...        done! (  0.5s)
Overall time for CPCM initialization              ...                 0.6s

----------------------------------------D-I-I-S--------------------------------------------
Iteration    Energy (Eh)           Delta-E    RMSDP     MaxDP     DIISErr   Damp  Time(sec)
-------------------------------------------------------------------------------------------
               ***  Starting incremental Fock matrix formation  ***
                              *** Initializing SOSCF ***
---------------------------------------S-O-S-C-F--------------------------------------
Iteration    Energy (Eh)           Delta-E    RMSDP     MaxDP     MaxGrad    Time(sec)
--------------------------------------------------------------------------------------
    1    -767.4791945632794068     0.00e+00  2.04e-06  1.33e-04  1.03e-06    11.1
               *** Restarting incremental Fock matrix formation ***
    2    -767.4791945631950512     8.44e-11  4.78e-07  2.60e-05  1.50e-06    10.9
                  *** Gradient check signals convergence ***

               *****************************************************
               *                     SUCCESS                       *
               *           SCF CONVERGED AFTER   2 CYCLES          *
               *****************************************************


SMD CDS free energy correction energy :                 7.43545     Kcal/mol
Total Energy after SMD CDS correction =              -767.467345423 Eh
             **** ENERGY FILE WAS UPDATED (xtb_opt.en.tmp) ****

----------------
TOTAL SCF ENERGY
----------------

Total Energy       :       -767.46734542319439 Eh          -20883.84818 eV

Components:
Nuclear Repulsion  :       1130.80795887960994 Eh           30770.84892 eV
Electronic Energy  :      -1898.25464596249117 Eh          -51654.13496 eV
One Electron Energy:      -3288.34746452794343 Eh          -89480.48361 eV
Two Electron Energy:       1390.09281856545226 Eh           37826.34865 eV
CPCM Dielectric    :         -0.03250748031378 Eh              -0.88457 eV
SMD CDS (Gcds)     :          0.01184914000062 Eh               0.32243 eV

Virial components:
Potential Energy   :      -1531.51709612296645 Eh          -41674.69889 eV
Kinetic Energy     :        764.04975069977206 Eh           20790.85070 eV
Virial Ratio       :          2.00447300024677

DFT components:
N(Alpha)           :       60.999984970927 electrons
N(Beta)            :       60.999984970927 electrons
N(Total)           :      121.999969941854 electrons
E(X)               :     -102.730668172978 Eh       
E(C)               :       -3.985657107160 Eh       
E(XC)              :     -106.716325280137 Eh       

CPCM Solvation Model Properties:
Surface-charge          :         -0.05804731463436
Corrected charge        :          0.00000000000000
Outlying charge corr.   :          0.00020223685816 Eh               0.00550 eV
Free-energy (cav+disp)  :          0.01184914000062 Eh               0.32243 eV

---------------
SCF CONVERGENCE
---------------

  Last Energy change         ...   -8.4356e-11  Tolerance :   1.0000e-07
  Last MAX-Density change    ...    2.6044e-05  Tolerance :   1.0000e-07
  Last RMS-Density change    ...    4.7785e-07  Tolerance :   5.0000e-09
  Last DIIS Error            ...    4.8463e-06  Tolerance :   1.0000e-07
  Last Orbital Gradient      ...    1.4985e-06  Tolerance :   1.0000e-04
  Last Orbital Rotation      ...    7.0295e-06  Tolerance :   1.0000e-04


----------------
ORBITAL ENERGIES
----------------

  NO   OCC          E(Eh)            E(eV) 
   0   2.0000     -19.002292      -517.0786 
   1   2.0000     -18.991054      -516.7729 
   2   2.0000     -18.953228      -515.7436 
   3   2.0000     -10.173594      -276.8376 
   4   2.0000     -10.100991      -274.8619 
   5   2.0000     -10.075288      -274.1625 
   6   2.0000     -10.057825      -273.6873 
   7   2.0000     -10.052523      -273.5431 
   8   2.0000     -10.051568      -273.5171 
   9   2.0000     -10.047986      -273.4196 
  10   2.0000     -10.042610      -273.2733 
  11   2.0000     -10.039616      -273.1918 
  12   2.0000     -10.038850      -273.1710 
  13   2.0000     -10.038361      -273.1577 
  14   2.0000     -10.038203      -273.1534 
  15   2.0000     -10.034923      -273.0641 
  16   2.0000     -10.022385      -272.7230 
  17   2.0000      -1.074291       -29.2330 
  18   2.0000      -1.031172       -28.0596 
  19   2.0000      -0.988532       -26.8993 
  20   2.0000      -0.847921       -23.0731 
  21   2.0000      -0.805856       -21.9285 
  22   2.0000      -0.764407       -20.8006 
  23   2.0000      -0.741930       -20.1889 
  24   2.0000      -0.711574       -19.3629 
  25   2.0000      -0.690145       -18.7798 
  26   2.0000      -0.661849       -18.0098 
  27   2.0000      -0.640247       -17.4220 
  28   2.0000      -0.595666       -16.2089 
  29   2.0000      -0.579773       -15.7764 
  30   2.0000      -0.568454       -15.4684 
  31   2.0000      -0.540656       -14.7120 
  32   2.0000      -0.498334       -13.5604 
  33   2.0000      -0.488694       -13.2980 
  34   2.0000      -0.483211       -13.1488 
  35   2.0000      -0.464771       -12.6471 
  36   2.0000      -0.452272       -12.3070 
  37   2.0000      -0.438427       -11.9302 
  38   2.0000      -0.430906       -11.7255 
  39   2.0000      -0.429904       -11.6983 
  40   2.0000      -0.415021       -11.2933 
  41   2.0000      -0.405487       -11.0339 
  42   2.0000      -0.392266       -10.6741 
  43   2.0000      -0.383894       -10.4463 
  44   2.0000      -0.379996       -10.3402 
  45   2.0000      -0.374852       -10.2002 
  46   2.0000      -0.372120       -10.1259 
  47   2.0000      -0.360680        -9.8146 
  48   2.0000      -0.348752        -9.4900 
  49   2.0000      -0.342227        -9.3125 
  50   2.0000      -0.326832        -8.8936 
  51   2.0000      -0.324029        -8.8173 
  52   2.0000      -0.319496        -8.6939 
  53   2.0000      -0.305682        -8.3180 
  54   2.0000      -0.302666        -8.2360 
  55   2.0000      -0.295291        -8.0353 
  56   2.0000      -0.282674        -7.6919 
  57   2.0000      -0.268859        -7.3160 
  58   2.0000      -0.254311        -6.9201 
  59   2.0000      -0.221347        -6.0232 
  60   2.0000      -0.196770        -5.3544 
  61   0.0000      -0.069504        -1.8913 
  62   0.0000      -0.042780        -1.1641 
  63   0.0000      -0.026882        -0.7315 
  64   0.0000      -0.006173        -0.1680 
  65   0.0000       0.060207         1.6383 
  66   0.0000       0.065528         1.7831 
  67   0.0000       0.072524         1.9735 
  68   0.0000       0.088488         2.4079 
  69   0.0000       0.095300         2.5932 
  70   0.0000       0.101655         2.7662 
  71   0.0000       0.107712         2.9310 
*Only the first 10 virtual orbitals were printed.
Total SCF time: 0 days 0 hours 0 min 23 sec 
Finished LeanSCF after  23.7 sec

Maximum memory used throughout the entire LEANSCF-calculation: 71.5 MB


-------------------------------------------------------------------------------
                          DFT DISPERSION CORRECTION                            
                                                                               
                                DFTD4 V3.4.0                                   
-------------------------------------------------------------------------------
-------------------------   ----------------
Dispersion correction           -0.012982293
-------------------------   ----------------

------------------   -----------------
gCP correction             0.013347214
------------------   -----------------

-------------------------   --------------------
FINAL SINGLE POINT ENERGY      -767.466980502375
-------------------------   --------------------

------------------------------------------------------------------------------
                         ORCA SCF GRADIENT CALCULATION
------------------------------------------------------------------------------

Nuc. rep. gradient        (SHARK) ... done (  0.0 sec)
HCore & Overlap gradient  (SHARK) ... done (  1.4 sec)
Split-RIJ-J gradient      (SHARK) ... done (  7.6 sec)
XC gradient                       ... done ( 19.7 sec)
CPCM gradient                     ... done (  3.8 sec)
SMD gradient                      ... done (  0.0 sec)
Dispersion correction             ... done (  0.0 sec)

-------------------
DISPERSION GRADIENT
-------------------

   1   C   :   -0.000088388    0.000000977    0.000097370
   2   C   :   -0.000097550    0.000029786    0.000024196
   3   H   :   -0.000039367    0.000031489    0.000004860
   4   C   :   -0.000058693    0.000005615    0.000019781
   5   C   :   -0.000018072   -0.000113784    0.000018007
   6   C   :    0.000017530   -0.000146799    0.000006435
   7   C   :    0.000025854   -0.000044222    0.000001201
   8   C   :    0.000072702   -0.000058847   -0.000006399
   9   C   :    0.000106037    0.000013582   -0.000011272
  10   C   :    0.000074140    0.000107413   -0.000009125
  11   C   :    0.000049250    0.000136341   -0.000005080
  12   C   :    0.000042029    0.000067469    0.000000331
  13   C   :   -0.000004114    0.000102701    0.000010501
  14   O   :    0.000097157   -0.000010191   -0.000009949
  15   C   :    0.000087149   -0.000058958   -0.000007443
  16   C   :   -0.000114953   -0.000001648   -0.000055090
  17   O   :   -0.000100415   -0.000042986   -0.000044960
  18   O   :   -0.000092230    0.000023087   -0.000119075
  19   H   :   -0.000038883   -0.000012142    0.000039012
  20   H   :   -0.000035027    0.000009731    0.000058211
  21   H   :   -0.000035373    0.000004710    0.000033840
  22   H   :   -0.000008904   -0.000057824    0.000004646
  23   H   :   -0.000001463   -0.000066466    0.000001075
  24   H   :    0.000025118   -0.000044004   -0.000002440
  25   H   :    0.000028083    0.000044366   -0.000003851
  26   H   :    0.000012281    0.000060144   -0.000001948
  27   H   :   -0.000002447    0.000066901    0.000001982
  28   H   :    0.000044274   -0.000020560    0.000003094
  29   H   :    0.000031489   -0.000012584   -0.000002985
  30   H   :    0.000042712   -0.000020708   -0.000011113
  31   H   :   -0.000019925    0.000007412   -0.000033812

Difference to translation invariance:
           :   -0.0000000000   -0.0000000000    0.0000000000

Difference to rotation invariance:
           :   -0.0000000000   -0.0000000000   -0.0000000000

Norm of the Dispersion gradient    ...    0.0005116893
RMS gradient                       ...    0.0000530597
MAX gradient                       ...    0.0001467994
gCP correction                   ... done

------------------
CARTESIAN GRADIENT
------------------

   1   C   :   -0.000148251   -0.000173892    0.000002067
   2   C   :   -0.000292384    0.000249845   -0.000125216
   3   H   :   -0.000013918    0.000020741    0.000037778
   4   C   :   -0.000002110   -0.000013398   -0.000004995
   5   C   :    0.000078729   -0.000097929    0.000005644
   6   C   :   -0.000060861   -0.000044730    0.000017444
   7   C   :    0.000080353   -0.000039240   -0.000005770
   8   C   :    0.000145293   -0.000098229   -0.000044992
   9   C   :   -0.000099429    0.000006506    0.000039007
  10   C   :    0.000011235    0.000033213   -0.000011983
  11   C   :    0.000083159    0.000055873   -0.000010445
  12   C   :   -0.000082882    0.000002728    0.000026704
  13   C   :    0.000051081    0.000089077   -0.000014539
  14   O   :   -0.000030108   -0.000103023   -0.000106501
  15   C   :    0.000035988    0.000073321    0.000025128
  16   C   :    0.000534147   -0.000381015    0.000274650
  17   O   :   -0.000528647   -0.000503235    0.000008119
  18   O   :    0.000300682    0.000894692   -0.000365275
  19   H   :   -0.000057002    0.000131101   -0.000009867
  20   H   :    0.000112191   -0.000055788    0.000077990
  21   H   :    0.000057279    0.000080355    0.000062543
  22   H   :   -0.000049559   -0.000010126    0.000021184
  23   H   :   -0.000010211   -0.000010263    0.000014704
  24   H   :   -0.000006811    0.000054114   -0.000013180
  25   H   :    0.000031736    0.000005875   -0.000014197
  26   H   :   -0.000020766    0.000022704    0.000008651
  27   H   :   -0.000033011    0.000038226   -0.000000915
  28   H   :   -0.000020261    0.000036067    0.000016329
  29   H   :   -0.000019431    0.000003053    0.000019840
  30   H   :    0.000019603   -0.000009610    0.000007672
  31   H   :   -0.000065837   -0.000257014    0.000062420

Difference to translation invariance:
           :    0.0000000000    0.0000000000    0.0000000000

Difference to rotation invariance:
           :   -0.0000551367   -0.0000791055    0.0006159936

Norm of the Cartesian gradient     ...    0.0016000448
RMS gradient                       ...    0.0001659169
MAX gradient                       ...    0.0008946917

-------
TIMINGS
-------

Total SCF gradient time     ....       35.561 sec

Densities                   ....       0.003 sec  (  0.0%)
One electron gradient       ....       1.354 sec  (  3.8%)
RI-J Coulomb gradient       ....       7.611 sec  ( 21.4%)
XC gradient                 ....      19.696 sec  ( 55.4%)
CPCM gradient               ....       3.780 sec  ( 10.6%)
   A-Matrix (El+Nuc)        ....       0.184 sec  (  0.5%)
   Potential                ....       3.596 sec  ( 10.1%)
SMD gradient                ....       0.013 sec  (  0.0%)

Maximum memory used throughout the entire SCFGRAD-calculation: 59.7 MB

------------------------------------------------------------------------------
                              ORCA PROPERTY CALCULATIONS
------------------------------------------------------------------------------

GBWName                                 ... xtb_opt.gbw
Number of atoms                         ...     31
Number of basis functions               ...    408
Max core memory                         ...   1024 MB

Electric properties:
Dipole moment                           ... YES
Quadrupole moment                       ...  NO
Static polarizability (Dipole/Dipole)   ...  NO
Static polarizability (Dipole/Quad.)    ...  NO
Static polarizability (Quad./Quad.)     ...  NO
Static polarizability (Velocity)        ...  NO

Atomic electric properties:
Dipole moment                           ...  NO
Quadrupole moment                       ...  NO
Static polarizability                   ...  NO

Choice of electric origin               ... Center of mass
Position of electric origin             ...    -0.011715     0.023529    -0.005227

General magnetic properties:
Magnetizability                         ...  NO

EPR properties:
g-Tensor (aka g-matrix)                 ...  NO
Zero-Field splitting spin-orbit         ...  NO
Zero-field splitting spin-spin          ...  NO
Hyperfine couplings                     ...  NO (   0 nuclei)
Quadrupole couplings                    ...  NO (   0 nuclei)
Contact density                         ...  NO (   0 nuclei)

NMR properties:
Chemical shifts                         ...  NO (   0 nuclei)
Spin-rotation constants                 ...  NO (   0 nuclei)
Spin-spin couplings                     ...  NO (   0 nuclei,    0 pairs)

Choice of magnetic origin               ... GIAO
Position of magnetic origin             ...     0.000000     0.000000     0.000000

Properties with geometric perturbations:
SCF Hessian                             ...  NO
IR spectrum                             ...  NO
VCD spectrum                            ...  NO
X-ray spectroscopy properties:
SCF XES/XAS/RIXS spectra                ...  NO


-------------
DIPOLE MOMENT
-------------

Method             : SCF
Type of density    : Electron Density
Multiplicity       :   1
Irrep              :   0
Energy             :  -767.4673454231943879 Eh
Relativity type    : 
Basis              : AO
                                X                 Y                 Z
Electronic contribution:     -2.264065825       2.523587394      -4.535041266
Nuclear contribution   :      3.122174164      -2.450533468       4.410018117
                        -----------------------------------------
Total Dipole Moment    :      0.858108339       0.073053925      -0.125023149
                        -----------------------------------------
Magnitude (a.u.)       :      0.870239958
Magnitude (Debye)      :      2.211974186



--------------------
Rotational spectrum 
--------------------
 
Rotational constants in cm-1:             0.043976             0.006868             0.006579 
Rotational constants in MHz :          1318.380691           205.897673           197.226882 

Dipole components along the rotational axes: 
x,y,z [a.u.] :     0.858872    -0.075360    -0.118229 
x,y,z [Debye]:     2.183078    -0.191551    -0.300514 

 

Dipole moment calculation done in   0.0 sec 

Maximum memory used throughout the entire PROP-calculation: 33.5 MB

--------------------------------
SUGGESTED CITATIONS FOR THIS RUN
--------------------------------

Below you find a list of papers that are relevant to this ORCA run
We neither can nor want to force you to cite these papers, but we appreciate if you do
You receive ORCA, which is the product of decades of hard work by many enthusiastic individuals, for free
The only thing we kindly ask in return is that you cite our papers,
We deeply appreciate it, if you show your appreciation for ORCA by not just citing the generic ORCA reference.

Please note that relegating all ORCA citations to the supporting information does *not* help us.
SI sections are not indexed - citations you put there will not count into any citation statistics
But we need these citations in order to attract the funding resources that allow us to do what we are doing

Therefore, if you are a happy ORCA user, please consider citing a few of the papers listed below in the main body of your paper

In addition to the list printed below, the program has created the file xtb_opt.bibtex that contains the list in bibtex format
You can import this file easily into all common literature databanks and citation aid programs


List of essential papers. We consider these as the minimum necessary citations

  1. Neese,F.
     Software update: the ORCA program system, version 5.0
     WIRES Comput. Molec. Sci., 2022 12(1)e1606
     doi.org/10.1002/wcms.1606
  2. Grimme,S.; Hansen,A.; Ehlert,S.; Mewes,J.
     r2SCAN-3c: A 'Swiss army knife' composite electronic-structure method
     J. Chem. Phys., 2021 154 064103
     doi.org/10.1063/5.0040021

List of papers to cite with high priority. The work reported in these papers was absolutely
necessary for this run to complete.
Our perspective: the developers of density functionals and basis sets usually get cited in chemistry papers
Good! But without the algorithms to do something with them, the functionals or basis sets would not do anything.
Hence, in our opinion, the algorithm design and method developments papers are equally worthy of getting cited

  1. Neese,F.
     An improvement of the resolution of the identity approximation for the formation of the Coulomb matrix
     J. Comp. Chem., 2003 24(14)1740-1747
     doi.org/10.1002/jcc.10318
  2. Garcia-Rates,M.; Neese,F.
     Effect of the Solute Cavity on the Solvation Energy and its Derivatives within the Framework of the Gaussian Charge Scheme
     J. Comput. Chem., 2020 41 922-939
     doi.org/10.1002/jcc.26139
  3. Neese,F.
     The SHARK Integral Generation and Digestion System
     J. Comp. Chem., 2022  1-16
     doi.org/10.1002/jcc.26942
  4. Lehtola,S.; Steigemann,C.; Oliveira,M.; Marques,M.
     Recent developments in Libxc - A comprehensive library of functionals for density functional theory
     Software X, 2018 7 
     doi.org/10.1016/j.softx.2017.11.002
  5. Caldeweyher,E.; Bannwarth,C.; Grimme,S.
     Extension of the D3 dispersion coefficient model
     J. Chem. Phys., 2017 147 034112-XXXX
     doi.org/10.1063/1.4993215
  6. Caldeweyher,E.; Ehlert,S.; Hansen,A.; Neugebauer,H.; Spicher,S.; Bannwarth,C.; Grimme,S.
     A generally applicable atomic-charge dependent London dispersion correction
     J. Chem. Phys., 2019 150 154122-XXXX
     doi.org/10.1063/1.5090222
  7. Caldeweyher,E.; Mewes,J.; Ehlert,S.; Grimme,S.
     Extension and evaluation of the D4 London-dispersion model for periodic systems
     Phys. Chem. Chem. Phys., 2020 22(16)8499-8512
     doi.org/10.1039/D0CP00502A

List of suggested additional citations. These are papers that are important in the 'surrounding' of 
of this run, or papers that preceded the highly important papers. If you like your results we are grateful for a citation.

  1. Neese,F.
     The ORCA program system
     WIRES Comput. Molec. Sci., 2012 2(1)73-78
     doi.org/10.1002/wcms.81
  2. Neese,F.
     Software update: the ORCA program system, version 4.0
     WIRES Comput. Molec. Sci., 2018 8(1)1-6
     doi.org/10.1002/wcms.1327
  3. Neese,F.; Wennmohs,F.; Becker,U.; Riplinger,C.
     The ORCA quantum chemistry program package
     J. Chem. Phys., 2020 152 Art. No. L224108
     doi.org/10.1063/5.0004608

List of optional additional citations

  1. Neese,F.
     Approximate second-order SCF convergence for spin unrestricted wavefunctions
     Chem. Phys. Lett., 2000 325(1-3)93-98
     doi.org/10.1016/s0009-2614(00)00662-x

Timings for individual modules:

Sum of individual times          ...       63.433 sec (=   1.057 min)
Startup calculation              ...        3.038 sec (=   0.051 min)   4.8 %
SCF iterations                   ...       24.480 sec (=   0.408 min)  38.6 %
Property calculations            ...        0.189 sec (=   0.003 min)   0.3 %
SCF Gradient evaluation          ...       35.727 sec (=   0.595 min)  56.3 %
                             ****ORCA TERMINATED NORMALLY****
TOTAL RUN TIME: 0 days 0 hours 1 minutes 4 seconds 546 msec
  ------------------------------------------------------------------------
          * successful ORCA run, taking over control again...

         :::::::::::::::::::::::::::::::::::::::::::::::::::::
         ::                  ORCA SUMMARY                   ::
         :::::::::::::::::::::::::::::::::::::::::::::::::::::
         :: total energy            -767.466980502375 Eh    ::
         :: gradient norm              0.001600044830 Eh/a0 ::
         :: HOMO-LUMO gap              0.000000000000 eV    ::
         :::::::::::::::::::::::::::::::::::::::::::::::::::::

      ----------------------------------------------------------- 
     |                       L-ANC optimizer                     |
      ----------------------------------------------------------- 
          low memory version by Sebastian Ehlert

          ...................................................
          :                      SETUP                      :
          :.................................................:
          :   energy convergence        0.5000000E-05 Eh    :
          :   grad. convergence         0.1000000E-02 Eh/a0 :
          :   optimization log               true           :
          :   writing optlog all                1     steps :
          :   Hessian reset                     8     steps :
          :   maximium step len.        1.0000000     a0    :
          :   LBFGS images                      8           :
          ...................................................
 * calculating model hessian...
Using Lindh-Hessian (1995)
 Shifting diagonal of input Hessian by   1.000000000000000E-002
 Lowest  eigenvalues of input Hessian
    0.000000    0.000000    0.000000    0.000000    0.000000    0.000000
    0.010406    0.011142    0.012278    0.013420    0.014739    0.015565
    0.016606    0.017519    0.018747    0.019083    0.021747    0.023671
 Highest eigenvalues
    1.786899    1.920818    1.930465    1.985352    2.106262    2.279106
 

........................................................................
.............................. CYCLE    1 ..............................
........................................................................
                         * ORCA takes the control...
  ------------------------------------------------------------------------

                                 *****************
                                 * O   R   C   A *
                                 *****************

                                            #,                                       
                                            ###                                      
                                            ####                                     
                                            #####                                    
                                            ######                                   
                                           ########,                                 
                                     ,,################,,,,,                         
                               ,,#################################,,                 
                          ,,##########################################,,             
                       ,#########################################, ''#####,          
                    ,#############################################,,   '####,        
                  ,##################################################,,,,####,       
                ,###########''''           ''''###############################       
              ,#####''   ,,,,##########,,,,          '''####'''          '####       
            ,##' ,,,,###########################,,,                        '##       
           ' ,,###''''                  '''############,,,                           
         ,,##''                                '''############,,,,        ,,,,,,###''
      ,#''                                            '''#######################'''  
     '                                                          ''''####''''         
             ,#######,   #######,   ,#######,      ##                                
            ,#'     '#,  ##    ##  ,#'     '#,    #''#        ,####,   ,####,        
            ##       ##  ##   ,#'  ##            #'  '#       #'       #'  '#        
            ##       ##  #######   ##           ,######,      #####,   #    #        
            '#,     ,#'  ##    ##  '#,     ,#' ,#      #,     #,   #   #,  ,#        
             '#######'   ##     ##  '#######'  #'      '#     '####' # '####'        



                #########################################################
                #                        -***-                          #
                #          Department of theory and spectroscopy        #
                #                                                       #
                #                      Frank Neese                      #
                #                                                       #
                #     Directorship, Architecture, Infrastructure        #
                #                    SHARK, DRIVERS                     #
                #        Core code/Algorithms in most modules           #
                #                                                       #
                #        Max Planck Institute fuer Kohlenforschung      #
                #                Kaiser Wilhelm Platz 1                 #
                #                 D-45470 Muelheim/Ruhr                 #
                #                      Germany                          #
                #                                                       #
                #                  All rights reserved                  #
                #                        -***-                          #
                #########################################################


                         Program Version 6.0.0  -   RELEASE  -


 With contributions from (in alphabetic order):
   Daniel Aravena         : Magnetic Suceptibility
   Michael Atanasov       : Ab Initio Ligand Field Theory (pilot matlab implementation)
   Alexander A. Auer      : GIAO ZORA, VPT2 properties, NMR spectrum
   Ute Becker             : All parallelization in ORCA, NUMFREQ, NUMCALC
   Giovanni Bistoni       : ED, misc. LED, open-shell LED, HFLD
   Martin Brehm           : Molecular dynamics
   Dmytro Bykov           : pre 5.0 version of the SCF Hessian
   Marcos Casanova-Páez   : Triplet and SCS-CIS(D). UHF-(DLPNO)-IP/EA/STEOM-CCSD. UHF-CVS-IP/STEOM-CCSD
   Vijay G. Chilkuri      : MRCI spin determinant printing, contributions to CSF-ICE
   Pauline Colinet        : FMM embedding
   Dipayan Datta          : RHF DLPNO-CCSD density
   Achintya Kumar Dutta   : EOM-CC, STEOM-CC
   Nicolas Foglia         : Exact transition moments, OPA infrastructure, MCD improvements
   Dmitry Ganyushin       : Spin-Orbit,Spin-Spin,Magnetic field MRCI
   Miquel Garcia          : C-PCM and meta-GGA Hessian, CCSD/C-PCM, Gaussian charge scheme
   Tiago L. C. Gouveia    : GS-ROHF, GS-ROCIS
   Yang Guo               : DLPNO-NEVPT2, F12-NEVPT2, CIM, IAO-localization
   Andreas Hansen         : Spin unrestricted coupled pair/coupled cluster methods
   Ingolf Harden          : AUTO-CI MPn and infrastructure 
   Benjamin Helmich-Paris : MC-RPA, TRAH-(SCF,CASSCF), AVAS, COSX integrals, SCF dyn. polar.
   Lee Huntington         : MR-EOM, pCC
   Robert Izsak           : Overlap fitted RIJCOSX, COSX-SCS-MP3, EOM
   Riya Kayal             : Wick's Theorem for AUTO-CI, AUTO-CI UHF-CCSDT
   Emily Kempfer          : AUTO-CI, RHF CISDT and CCSDT
   Christian Kollmar      : KDIIS, OOCD, Brueckner-CCSD(T), CCSD density, CASPT2, CASPT2-K, improved NEVPT2
   Axel Koslowski         : Symmetry handling
   Simone Kossmann        : Meta GGA functionals, TD-DFT gradient, OOMP2, (MP2 Hessian; deprecated post 5.0)
   Lucas Lang             : DCDCAS
   Marvin Lechner         : AUTO-CI (C++ implementation), FIC-MRCC
   Spencer Leger          : CASSCF response
   Dagmar Lenk            : GEPOL surface, SMD, ORCA-2-JSON
   Dimitrios Liakos       : Extrapolation schemes; Compound Job, initial MDCI parallelization
   Dimitrios Manganas     : Further ROCIS development; embedding schemes. LFT, Crystal Embedding
   Dimitrios Pantazis     : SARC Basis sets
   Anastasios Papadopoulos: AUTO-CI, single reference methods and gradients
   Taras Petrenko         : pre 6.0 DFT Hessian and TD-DFT gradient, (ASA, deprecated), ECA, 1-Electron XAS/XES, NRVS
   Peter Pinski           : DLPNO-MP2, DLPNO-MP2 Gradient
   Christoph Reimann      : Effective Core Potentials
   Marius Retegan         : Local ZFS, SOC
   Christoph Riplinger    : Optimizer, TS searches, QM/MM, DLPNO-CCSD(T), (RO)-DLPNO pert. Triples
   Michael Roemelt        : Original ROCIS implementation
   Masaaki Saitow         : Open-shell DLPNO-CCSD energy and density
   Barbara Sandhoefer     : DKH picture change effects
   Kantharuban Sivalingam : CASSCF convergence/infrastructure, NEVPT2 and variants, FIC-MRCI
   Bernardo de Souza      : ESD, SOC TD-DFT
   Georgi Stoychev        : AutoAux, RI-MP2 NMR, DLPNO-MP2 response, X2C
   Van Anh Tran           : RI-MP2 g-tensors
   Willem Van den Heuvel  : Paramagnetic NMR
   Zikuan Wang            : NOTCH, Electric field optimization 
   Frank Wennmohs         : Technical directorship and infrastructure
   Hang Xu                : AUTO-CI-Response properties 


 We gratefully acknowledge several colleagues who have allowed us to
 interface, adapt or use parts of their codes:
   Stefan Grimme, W. Hujo, H. Kruse, P. Pracht,  : VdW corrections, initial TS optimization,
                  C. Bannwarth, S. Ehlert,         DFT functionals, gCP, sTDA/sTD-DF
                  L. Wittmann, M. Mueller
   Ed Valeev, F. Pavosevic, A. Kumar             : LibInt (2-el integral package), F12 methods
   Garnet Chan, S. Sharma, J. Yang, R. Olivares  : DMRG
   Ulf Ekstrom                                   : XCFun DFT Library
   Mihaly Kallay                                 : mrcc  (arbitrary order and MRCC methods)
   Frank Weinhold                                : gennbo (NPA and NBO analysis)
   Simon Mueller                                 : openCOSMO-RS
   Christopher J. Cramer and Donald G. Truhlar   : smd solvation model
   Lars Goerigk                                  : TD-DFT with DH, B97 family of functionals
   V. Asgeirsson, H. Jonsson                     : NEB implementation
   FAccTs GmbH                                   : IRC, NEB, NEB-TS, DLPNO-Multilevel, CI-OPT
                                                   MM, QMMM, 2- and 3-layer-ONIOM, Crystal-QMMM,
                                                   LR-CPCM, SF, NACMEs, symmetry and pop. for TD-DFT,
                                                   nearIR, NL-DFT gradient (VV10), updates on ESD,
                                                   ML-optimized integration grids, MBIS, APM,
                                                   GOAT, DOCKER, SOLVATOR, interface openCOSMO-RS
   S Lehtola, MJT Oliveira, MAL Marques          : LibXC Library
   Liviu Ungur et al                             : ANISO software


 Your calculation uses the libint2 library for the computation of 2-el integrals
 For citations please refer to: http://libint.valeyev.net

 Your ORCA version has been built with support for libXC version: 6.2.2
 For citations please refer to: https://libxc.gitlab.io

 This ORCA versions uses:
   CBLAS   interface :  Fast vector & matrix operations
   LAPACKE interface :  Fast linear algebra routines
   SCALAPACK package :  Parallel linear algebra routines
   Shared memory     :  Shared parallel matrices
   BLAS/LAPACK       :  OpenBLAS 0.3.27  USE64BITINT DYNAMIC_ARCH NO_AFFINITY SkylakeX SINGLE_THREADED
        Core in use  :  SkylakeX
   Copyright (c) 2011-2014, The OpenBLAS Project




***************************************
The coordinates will be read from file: xtb_opt.xyz
***************************************


Your calculation utilizes the geometrical counterpoise correction gCP
Please cite in your paper:
H.Kruse, S. Grimme J.Chem.Phys., 136, (2012), 154101 
   

Your calculation utilizes the atom-pairwise dispersion correction
based on EEQ partial charges (D4)


Your calculation utilizes the SMD solvation module
Please cite in your paper:
A.V. Marenich, C.J. Cramer, D.G. Truhlar J. Phys. Chem. B, 113, (2009), 6378 

================================================================================

----- Orbital basis set information -----
Your calculation utilizes the basis: def2-mTZVPP
   Stefan Grimme, Andreas Hansen, Sebastian Ehlert, and Jan-Michael Mewes 
   J. Chem. Phys. 154, 064103 (2021). DOI: 10.1063/5.0040021

----- AuxJ basis set information -----
Your calculation utilizes the auxiliary basis: def2/J
   F. Weigend, Phys. Chem. Chem. Phys. 8, 1057 (2006).

================================================================================
                                        WARNINGS
                       Please study these warnings very carefully!
================================================================================

WARNING: Old DensityContainer found on disk!
         Will remove this file - 
         If you want to keep old densities, please start your calculation with a different basename. 

Using LibXC functional ID 497 : Re-regularized SCAN exchange by Furness et al
[ 1]  J. W. Furness, A. D. Kaplan, J. Ning, J. P. Perdew, and J. Sun.,  J. Phys. Chem. Lett. 11, 8208-8215 (2020)
[ 2]  J. W. Furness, A. D. Kaplan, J. Ning, J. P. Perdew, and J. Sun.,  J. Phys. Chem. Lett. 11, 9248-9248 (2020)
Using LibXC functional ID 498 : Re-regularized SCAN correlation by Furness et al
[ 1]  J. W. Furness, A. D. Kaplan, J. Ning, J. P. Perdew, and J. Sun.,  J. Phys. Chem. Lett. 11, 8208-8215 (2020)
[ 2]  J. W. Furness, A. D. Kaplan, J. Ning, J. P. Perdew, and J. Sun.,  J. Phys. Chem. Lett. 11, 9248-9248 (2020)
Using LibXC functional ID 497 : Re-regularized SCAN exchange by Furness et al
[ 1]  J. W. Furness, A. D. Kaplan, J. Ning, J. P. Perdew, and J. Sun.,  J. Phys. Chem. Lett. 11, 8208-8215 (2020)
[ 2]  J. W. Furness, A. D. Kaplan, J. Ning, J. P. Perdew, and J. Sun.,  J. Phys. Chem. Lett. 11, 9248-9248 (2020)
Using LibXC functional ID 498 : Re-regularized SCAN correlation by Furness et al
[ 1]  J. W. Furness, A. D. Kaplan, J. Ning, J. P. Perdew, and J. Sun.,  J. Phys. Chem. Lett. 11, 8208-8215 (2020)
[ 2]  J. W. Furness, A. D. Kaplan, J. Ning, J. P. Perdew, and J. Sun.,  J. Phys. Chem. Lett. 11, 9248-9248 (2020)

================================================================================
                                       INPUT FILE
================================================================================
NAME = xtb_opt.inp
|  1> ! r2scan-3c def2/J RI DEFGRID2 scfconv7 ENGRAD tightSCF miniprint
|  2> %cpcm
|  3>     smd true
|  4>     smdsolvent "water"
|  5> end
|  6> * xyzfile 0 1 xtb_opt.xyz
|  7> 
|  8>                          ****END OF INPUT****
================================================================================

                     *******************************
                     * Energy+Gradient Calculation *
                     *******************************

---------------------------------
CARTESIAN COORDINATES (ANGSTROEM)
---------------------------------
  C     -3.632459    0.024255    1.893379
  C     -3.066692    0.513085    0.562135
  H     -3.171123    1.600836    0.487956
  C     -1.592882    0.179702    0.398699
  C     -1.175199   -1.173391    0.371589
  C      0.152715   -1.501322    0.238425
  C      1.143164   -0.494213    0.126826
  C      2.518193   -0.811005   -0.007804
  C      3.445121    0.204062   -0.115088
  C      3.038408    1.561796   -0.092388
  C      1.713734    1.882996    0.037551
  C      0.725368    0.872015    0.150704
  C     -0.648850    1.176501    0.283922
  O      4.795045    0.018618   -0.249789
  C      5.269954   -1.336423   -0.266749
  C     -3.829826   -0.074307   -0.606446
  O     -4.585996   -1.026213   -0.552578
  O     -3.556323    0.572941   -1.762530
  H     -3.546192   -1.061591    1.985099
  H     -3.079416    0.485923    2.715427
  H     -4.687932    0.295308    1.987964
  H     -1.917267   -1.962910    0.455200
  H      0.459645   -2.543215    0.216634
  H      2.809503   -1.854664   -0.023586
  H      3.797464    2.332647   -0.179830
  H      1.405233    2.924318    0.055108
  H     -0.953868    2.219936    0.297403
  H      5.023515   -1.848564    0.670297
  H      6.353007   -1.268684   -0.373818
  H      4.849606   -1.888048   -1.115237
  H     -4.046619    0.136209   -2.480677

----------------------------
CARTESIAN COORDINATES (A.U.)
----------------------------
  NO LB      ZA    FRAG     MASS         X           Y           Z
   0 C     6.0000    0    12.011   -6.864353    0.045834    3.577969
   1 C     6.0000    0    12.011   -5.795209    0.969589    1.062282
   2 H     1.0000    0     1.008   -5.992554    3.025141    0.922103
   3 C     6.0000    0    12.011   -3.010111    0.339588    0.753433
   4 C     6.0000    0    12.011   -2.220804   -2.217387    0.702202
   5 C     6.0000    0    12.011    0.288590   -2.837087    0.450557
   6 C     6.0000    0    12.011    2.160267   -0.933926    0.239667
   7 C     6.0000    0    12.011    4.758696   -1.532578   -0.014747
   8 C     6.0000    0    12.011    6.510334    0.385621   -0.217485
   9 C     6.0000    0    12.011    5.741759    2.951368   -0.174588
  10 C     6.0000    0    12.011    3.238487    3.558346    0.070961
  11 C     6.0000    0    12.011    1.370746    1.647870    0.284789
  12 C     6.0000    0    12.011   -1.226149    2.223265    0.536534
  13 O     8.0000    0    15.999    9.061321    0.035182   -0.472034
  14 C     6.0000    0    12.011    9.958770   -2.525473   -0.504082
  15 C     6.0000    0    12.011   -7.237322   -0.140420   -1.146016
  16 O     8.0000    0    15.999   -8.666277   -1.939261   -1.044222
  17 O     8.0000    0    15.999   -6.720477    1.082702   -3.330700
  18 H     1.0000    0     1.008   -6.701332   -2.006116    3.751294
  19 H     1.0000    0     1.008   -5.819254    0.918261    5.131413
  20 H     1.0000    0     1.008   -8.858908    0.558051    3.756707
  21 H     1.0000    0     1.008   -3.623110   -3.709362    0.860203
  22 H     1.0000    0     1.008    0.868603   -4.805981    0.409378
  23 H     1.0000    0     1.008    5.309191   -3.504807   -0.044571
  24 H     1.0000    0     1.008    7.176166    4.408063   -0.339829
  25 H     1.0000    0     1.008    2.655506    5.526161    0.104140
  26 H     1.0000    0     1.008   -1.802549    4.195070    0.562010
  27 H     1.0000    0     1.008    9.493067   -3.493280    1.266677
  28 H     1.0000    0     1.008   12.005444   -2.397466   -0.706414
  29 H     1.0000    0     1.008    9.164427   -3.567893   -2.107492
  30 H     1.0000    0     1.008   -7.647001    0.257397   -4.687800

------------------------------------------------------------------------------
                   ___                                                        
                  /   \      - P O W E R E D   B Y -                         
                 /     \                                                     
                 |  |  |   _    _      __       _____    __    __             
                 |  |  |  | |  | |    /  \     |  _  \  |  |  /  |          
                  \  \/   | |  | |   /    \    | | | |  |  | /  /          
                 / \  \   | |__| |  /  /\  \   | |_| |  |  |/  /          
                |  |  |   |  __  | /  /__\  \  |    /   |      \           
                |  |  |   | |  | | |   __   |  |    \   |  |\   \          
                \     /   | |  | | |  |  |  |  | |\  \  |  | \   \       
                 \___/    |_|  |_| |__|  |__|  |_| \__\ |__|  \__/        
                                                                              
                      - O R C A' S   B I G   F R I E N D -                    
                                      &                                       
                       - I N T E G R A L  F E E D E R -                       
                                                                              
 v1 FN, 2020, v2 2021, v3 2022-2024                                           
------------------------------------------------------------------------------


----------------------
SHARK INTEGRAL PACKAGE
----------------------

Number of atoms                             ...     31
Number of basis functions                   ...    408
Number of shells                            ...    198
Maximum angular momentum                    ...      2
Integral batch strategy                     ... SHARK/LIBINT Hybrid
RI-J (if used) integral strategy            ... SPLIT-RIJ (Revised 2003 algorithm where possible)
Printlevel                                  ...      1
Contraction scheme used                     ... SEGMENTED contraction
Prescreening option                         ... SCHWARTZ
   Thresh                                   ... 3.000e-11
   Tcut                                     ... 1.000e-12
   Tpresel                                  ... 1.000e-12 
Coulomb Range Separation                    ... NOT USED
Exchange Range Separation                   ... NOT USED
Multipole approximations                    ... NOT USED
Finite Nucleus Model                        ... NOT USED
CABS basis                                  ... NOT available
Auxiliary Coulomb fitting basis             ... AVAILABLE
   # of basis functions in Aux-J            ...    987
   # of shells in Aux-J                     ...    325
   Maximum angular momentum in Aux-J        ...      4
Auxiliary J/K fitting basis                 ... NOT available
Auxiliary Correlation fitting basis         ... NOT available
Auxiliary 'external' fitting basis          ... NOT available

Checking pre-screening integrals            ... done (  0.0 sec) Dimension = 198
Check shell pair data                       ... done (  0.0 sec)
Shell pair information
Shell pair cut-off parameter TPreSel        ...   1.0e-12
Total number of shell pairs                 ...     19701
Shell pairs after pre-screening             ...     14543
Total number of primitive shell pairs       ...     72426
Primitive shell pairs kept                  ...     34797
          la=0 lb=0:   4547 shell pairs
          la=1 lb=0:   5574 shell pairs
          la=1 lb=1:   1711 shell pairs
          la=2 lb=0:   1587 shell pairs
          la=2 lb=1:    975 shell pairs
          la=2 lb=2:    149 shell pairs

Calculating one electron integrals          ... done (  0.1 sec)
Calculating RI/J V-Matrix + Cholesky decomp.... done (  0.1 sec)
Calculating Nuclear repulsion               ... done (  0.0 sec) ENN=   1130.855541195426 Eh

Diagonalization of the overlap matrix:
Smallest eigenvalue                        ... 1.331e-05
Time for diagonalization                   ...    0.023 sec
Threshold for overlap eigenvalues          ... 1.000e-07
Number of eigenvalues below threshold      ... 0
Time for construction of square roots      ...    0.027 sec
Total time needed                          ...    0.203 sec

-------------------
DFT GRID GENERATION
-------------------

General Integration Accuracy     IntAcc      ... 4.388
Radial Grid Type                 RadialGrid  ... OptM3 with GC (2021)
Angular Grid (max. ang.)         AngularGrid ... 4 (Lebedev-302)
Angular grid pruning method      GridPruning ... 4 (adaptive)
Weight generation scheme         WeightScheme... mBecke (2022)
Basis function cutoff            BFCut       ... 1.0000e-11
Integration weight cutoff        WCut        ... 1.0000e-14
Partially contracted basis set               ... off
Rotationally invariant grid construction     ... off
Angular grids for H and He will be reduced by one unit
Diffuse basis detected: some atoms will have their outermost
                        angular grid increased by 1.

Total number of grid points                  ...   147342
Total number of batches                      ...     2319
Average number of points per batch           ...       63
Average number of grid points per atom       ...     4753
Initializing property integral containers    ... done (  0.0 sec)

SHARK setup successfully completed in   2.8 seconds

Maximum memory used throughout the entire STARTUP-calculation: 72.9 MB
Occupation numbers will be reassigned to an Aufbau configuration
             **** ENERGY FILE WAS UPDATED (xtb_opt.en.tmp) ****
Finished Guess after   0.5 sec
Maximum memory used throughout the entire GUESS-calculation: 35.7 MB
--------------------
CPCM SOLVATION MODEL
--------------------
CPCM parameters:
  Epsilon                                         ...      78.3550
  Refrac                                          ...       1.3328
  Rsolv                                           ...       1.3000
  Surface type                                    ... GAUSSIAN VDW
  Discretization scheme                           ... Constant charge density
    Threshold for H atoms                         ...       5.0000 (charges/Ang^2)
    Threshold for non-H atoms                     ...       5.0000 (charges/Ang^2)
  Epsilon function type                           ...         CPCM
Solvent:                                          ... WATER
SMD-CDS solvent descriptors:
  Soln                                            ...       1.3328
  Soln25                                          ...       1.3323
  Sola                                            ...       0.0000
  Solb                                            ...       0.0000
  Solg                                            ...       0.0000
  Solc                                            ...       0.0000
  Solh                                            ...       0.0000
Radii:
  Scheme                                          ... Element-dependent radii
  Radius for C  used is    3.4960 Bohr (=   1.8500 Ang.)
  Radius for H  used is    2.2677 Bohr (=   1.2000 Ang.)
  Radius for O  used is    2.8724 Bohr (=   1.5200 Ang.)
Calculating surface                               ...        done! (  0.0s)
Cavity surface points                             ...         2309
Cavity Volume                                     ...    1553.9893
Cavity Surface-area                               ...     924.4462
Calculating surface distance matrix               ...        done! (  0.0s)
Performing Cholesky decomposition & store         ...        done! (  0.2s)
Overall time for CPCM initialization              ...                 0.3s

----------------------------------------D-I-I-S--------------------------------------------
Iteration    Energy (Eh)           Delta-E    RMSDP     MaxDP     DIISErr   Damp  Time(sec)
-------------------------------------------------------------------------------------------
               ***  Starting incremental Fock matrix formation  ***
                              *** Initializing SOSCF ***
---------------------------------------S-O-S-C-F--------------------------------------
Iteration    Energy (Eh)           Delta-E    RMSDP     MaxDP     MaxGrad    Time(sec)
--------------------------------------------------------------------------------------
    1    -767.4791905869060429     0.00e+00  3.72e-05  1.39e-03  8.89e-05    11.4
               *** Restarting incremental Fock matrix formation ***
    2    -767.4792079418098183    -1.74e-05  1.33e-05  3.27e-04  8.46e-05    11.2
    3    -767.4792090242885934    -1.08e-06  4.18e-06  2.03e-04  2.55e-05     8.0
    4    -767.4792089870004475     3.73e-08  2.15e-06  6.95e-05  4.17e-05     7.7
                 **** Energy Check signals convergence ****

               *****************************************************
               *                     SUCCESS                       *
               *           SCF CONVERGED AFTER   4 CYCLES          *
               *****************************************************


SMD CDS free energy correction energy :                 7.44036     Kcal/mol
Total Energy after SMD CDS correction =              -767.467352012 Eh
[...]
*Only the first 10 virtual orbitals were printed.
Total SCF time: 0 days 0 hours 0 min 37 sec 
Finished LeanSCF after  37.6 sec

Maximum memory used throughout the entire LEANSCF-calculation: 71.5 MB


-------------------------------------------------------------------------------
                          DFT DISPERSION CORRECTION                            
                                                                               
                                DFTD4 V3.4.0                                   
-------------------------------------------------------------------------------
-------------------------   ----------------
Dispersion correction           -0.012981699
-------------------------   ----------------

------------------   -----------------
gCP correction             0.013347497
------------------   -----------------

-------------------------   --------------------
FINAL SINGLE POINT ENERGY      -767.466994458617
-------------------------   --------------------

------------------------------------------------------------------------------
                         ORCA SCF GRADIENT CALCULATION
------------------------------------------------------------------------------

Nuc. rep. gradient        (SHARK) ... done (  0.0 sec)
HCore & Overlap gradient  (SHARK) ... done (  1.3 sec)
Split-RIJ-J gradient      (SHARK) ... done (  7.4 sec)
XC gradient                       ... done ( 18.4 sec)
CPCM gradient                     ... done (  3.6 sec)
SMD gradient                      ... done (  0.0 sec)
Dispersion correction             ... done (  0.0 sec)

-------------------
DISPERSION GRADIENT
-------------------

   1   C   :   -0.000088345    0.000001077    0.000097390
   2   C   :   -0.000097498    0.000029829    0.000024192
   3   H   :   -0.000039340    0.000031499    0.000004874
   4   C   :   -0.000058590    0.000005574    0.000019483
   5   C   :   -0.000017967   -0.000113851    0.000017586
   6   C   :    0.000017367   -0.000146787    0.000006092
   7   C   :    0.000025748   -0.000044192    0.000001090
   8   C   :    0.000072721   -0.000058822   -0.000006188
   9   C   :    0.000106081    0.000013591   -0.000010960
  10   C   :    0.000074168    0.000107428   -0.000008845
  11   C   :    0.000049217    0.000136334   -0.000005060
  12   C   :    0.000041919    0.000067442    0.000000144
  13   C   :   -0.000004140    0.000102638    0.000010192
  14   O   :    0.000097210   -0.000010209   -0.000009664
  15   C   :    0.000087121   -0.000058936   -0.000007608
  16   C   :   -0.000114948   -0.000001620   -0.000054829
  17   O   :   -0.000100640   -0.000042569   -0.000044309
  18   O   :   -0.000092373    0.000022864   -0.000119043
  19   H   :   -0.000038845   -0.000012144    0.000039276
  20   H   :   -0.000034931    0.000009911    0.000058173
  21   H   :   -0.000035329    0.000004531    0.000033631
  22   H   :   -0.000008800   -0.000057888    0.000004510
  23   H   :   -0.000001521   -0.000066455    0.000000972
  24   H   :    0.000025136   -0.000044003   -0.000002311
  25   H   :    0.000028098    0.000044378   -0.000003735
  26   H   :    0.000012274    0.000060146   -0.000001974
  27   H   :   -0.000002450    0.000066881    0.000001902
  28   H   :    0.000044196   -0.000020544    0.000003042
  29   H   :    0.000031477   -0.000012588   -0.000003032
  30   H   :    0.000042800   -0.000020736   -0.000011185
  31   H   :   -0.000019817    0.000007222   -0.000033805

Difference to translation invariance:
           :    0.0000000000    0.0000000000   -0.0000000000

Difference to rotation invariance:
           :   -0.0000000000    0.0000000000    0.0000000000

Norm of the Dispersion gradient    ...    0.0005115124
RMS gradient                       ...    0.0000530414
MAX gradient                       ...    0.0001467869
gCP correction                   ... done

------------------
CARTESIAN GRADIENT
------------------

   1   C   :    0.000061413    0.000061146   -0.000044923
   2   C   :    0.000019803    0.000046722    0.000023413
   3   H   :    0.000054969    0.000016345    0.000035756
   4   C   :   -0.000029055   -0.000040637    0.000036057
   5   C   :   -0.000051033    0.000046396    0.000020114
   6   C   :    0.000047561    0.000005431    0.000000670
   7   C   :   -0.000043769    0.000030573    0.000006768
   8   C   :   -0.000049905    0.000021135    0.000003357
   9   C   :    0.000048996   -0.000008186   -0.000003905
  10   C   :   -0.000015880   -0.000007341   -0.000009973
  11   C   :   -0.000055691   -0.000027690   -0.000001753
  12   C   :    0.000041091    0.000007332   -0.000010851
  13   C   :   -0.000023055   -0.000023931   -0.000003544
  14   O   :   -0.000006470    0.000045022   -0.000029623
  15   C   :    0.000015295   -0.000031875    0.000015180
  16   C   :    0.000201999    0.000083227   -0.000191417
  17   O   :   -0.000022325   -0.000059365    0.000032483
  18   O   :   -0.000153805   -0.000176143    0.000173310
  19   H   :   -0.000049237   -0.000050864   -0.000031737
  20   H   :   -0.000020050   -0.000041752    0.000006098
  21   H   :   -0.000033068    0.000007392   -0.000017968
  22   H   :    0.000024560   -0.000004052    0.000013551
  23   H   :    0.000011318    0.000003970    0.000011473
  24   H   :    0.000002666   -0.000012837    0.000002471
  25   H   :   -0.000014238    0.000011748   -0.000016277
  26   H   :    0.000001975   -0.000002871   -0.000013023
  27   H   :    0.000009260   -0.000017402    0.000002600
  28   H   :   -0.000011408    0.000018121    0.000015767
  29   H   :    0.000006450    0.000002785    0.000004314
  30   H   :   -0.000004429   -0.000004821   -0.000002168
  31   H   :    0.000036062    0.000102420   -0.000026220

Difference to translation invariance:
           :   -0.0000000000    0.0000000000   -0.0000000000

Difference to rotation invariance:
           :   -0.0001124427   -0.0001171788    0.0005750633

Norm of the Cartesian gradient     ...    0.0004980514
RMS gradient                       ...    0.0000516455
MAX gradient                       ...    0.0002019988

-------
TIMINGS
-------

Total SCF gradient time     ....       33.657 sec

Densities                   ....       0.003 sec  (  0.0%)
One electron gradient       ....       1.318 sec  (  3.9%)
RI-J Coulomb gradient       ....       7.351 sec  ( 21.8%)
XC gradient                 ....      18.434 sec  ( 54.8%)
CPCM gradient               ....       3.608 sec  ( 10.7%)
   A-Matrix (El+Nuc)        ....       0.169 sec  (  0.5%)
   Potential                ....       3.440 sec  ( 10.2%)
SMD gradient                ....       0.017 sec  (  0.0%)

Maximum memory used throughout the entire SCFGRAD-calculation: 59.6 MB

------------------------------------------------------------------------------
                              ORCA PROPERTY CALCULATIONS
------------------------------------------------------------------------------

GBWName                                 ... xtb_opt.gbw
Number of atoms                         ...     31
Number of basis functions               ...    408
Max core memory                         ...   1024 MB

Electric properties:
Dipole moment                           ... YES
Quadrupole moment                       ...  NO
Static polarizability (Dipole/Dipole)   ...  NO
Static polarizability (Dipole/Quad.)    ...  NO
Static polarizability (Quad./Quad.)     ...  NO
Static polarizability (Velocity)        ...  NO

Atomic electric properties:
Dipole moment                           ...  NO
Quadrupole moment                       ...  NO
Static polarizability                   ...  NO

Choice of electric origin               ... Center of mass
Position of electric origin             ...    -0.012560     0.023398    -0.003343

General magnetic properties:
Magnetizability                         ...  NO

EPR properties:
g-Tensor (aka g-matrix)                 ...  NO
Zero-Field splitting spin-orbit         ...  NO
Zero-field splitting spin-spin          ...  NO
Hyperfine couplings                     ...  NO (   0 nuclei)
Quadrupole couplings                    ...  NO (   0 nuclei)
Contact density                         ...  NO (   0 nuclei)

NMR properties:
Chemical shifts                         ...  NO (   0 nuclei)
Spin-rotation constants                 ...  NO (   0 nuclei)
Spin-spin couplings                     ...  NO (   0 nuclei,    0 pairs)

Choice of magnetic origin               ... GIAO
Position of magnetic origin             ...     0.000000     0.000000     0.000000

Properties with geometric perturbations:
SCF Hessian                             ...  NO
IR spectrum                             ...  NO
VCD spectrum                            ...  NO
X-ray spectroscopy properties:
SCF XES/XAS/RIXS spectra                ...  NO


-------------
DIPOLE MOMENT
-------------

Method             : SCF
Type of density    : Electron Density
Multiplicity       :   1
Irrep              :   0
Energy             :  -767.4673602566565478 Eh
Relativity type    : 
Basis              : AO
                                X                 Y                 Z
Electronic contribution:     -2.275332672       2.522571572      -4.524464189
Nuclear contribution   :      3.132430267      -2.448966267       4.383451690
                        -----------------------------------------
Total Dipole Moment    :      0.857097595       0.073605304      -0.141012499
                        -----------------------------------------
Magnitude (a.u.)       :      0.871733075
Magnitude (Debye)      :      2.215769385



--------------------
Rotational spectrum 
--------------------
 
Rotational constants in cm-1:             0.044070             0.006862             0.006573 
Rotational constants in MHz :          1321.170458           205.704454           197.053867 

Dipole components along the rotational axes: 
x,y,z [a.u.] :     0.857894    -0.075944    -0.134793 
x,y,z [Debye]:     2.180593    -0.193034    -0.342617 

 

Dipole moment calculation done in   0.0 sec 

Maximum memory used throughout the entire PROP-calculation: 33.5 MB

--------------------------------
SUGGESTED CITATIONS FOR THIS RUN
--------------------------------

Below you find a list of papers that are relevant to this ORCA run
We neither can nor want to force you to cite these papers, but we appreciate if you do
You receive ORCA, which is the product of decades of hard work by many enthusiastic individuals, for free
The only thing we kindly ask in return is that you cite our papers,
We deeply appreciate it, if you show your appreciation for ORCA by not just citing the generic ORCA reference.

Please note that relegating all ORCA citations to the supporting information does *not* help us.
SI sections are not indexed - citations you put there will not count into any citation statistics
But we need these citations in order to attract the funding resources that allow us to do what we are doing

Therefore, if you are a happy ORCA user, please consider citing a few of the papers listed below in the main body of your paper

In addition to the list printed below, the program has created the file xtb_opt.bibtex that contains the list in bibtex format
You can import this file easily into all common literature databanks and citation aid programs


List of essential papers. We consider these as the minimum necessary citations

  1. Neese,F.
     Software update: the ORCA program system, version 5.0
     WIRES Comput. Molec. Sci., 2022 12(1)e1606
     doi.org/10.1002/wcms.1606
  2. Grimme,S.; Hansen,A.; Ehlert,S.; Mewes,J.
     r2SCAN-3c: A 'Swiss army knife' composite electronic-structure method
     J. Chem. Phys., 2021 154 064103
     doi.org/10.1063/5.0040021

List of papers to cite with high priority. The work reported in these papers was absolutely
necessary for this run to complete.
Our perspective: the developers of density functionals and basis sets usually get cited in chemistry papers
Good! But without the algorithms to do something with them, the functionals or basis sets would not do anything.
Hence, in our opinion, the algorithm design and method developments papers are equally worthy of getting cited

  1. Neese,F.
     An improvement of the resolution of the identity approximation for the formation of the Coulomb matrix
     J. Comp. Chem., 2003 24(14)1740-1747
     doi.org/10.1002/jcc.10318
  2. Garcia-Rates,M.; Neese,F.
     Effect of the Solute Cavity on the Solvation Energy and its Derivatives within the Framework of the Gaussian Charge Scheme
     J. Comput. Chem., 2020 41 922-939
     doi.org/10.1002/jcc.26139
  3. Neese,F.
     The SHARK Integral Generation and Digestion System
     J. Comp. Chem., 2022  1-16
     doi.org/10.1002/jcc.26942
  4. Lehtola,S.; Steigemann,C.; Oliveira,M.; Marques,M.
     Recent developments in Libxc - A comprehensive library of functionals for density functional theory
     Software X, 2018 7 
     doi.org/10.1016/j.softx.2017.11.002
  5. Caldeweyher,E.; Bannwarth,C.; Grimme,S.
     Extension of the D3 dispersion coefficient model
     J. Chem. Phys., 2017 147 034112-XXXX
     doi.org/10.1063/1.4993215
  6. Caldeweyher,E.; Ehlert,S.; Hansen,A.; Neugebauer,H.; Spicher,S.; Bannwarth,C.; Grimme,S.
     A generally applicable atomic-charge dependent London dispersion correction
     J. Chem. Phys., 2019 150 154122-XXXX
     doi.org/10.1063/1.5090222
  7. Caldeweyher,E.; Mewes,J.; Ehlert,S.; Grimme,S.
     Extension and evaluation of the D4 London-dispersion model for periodic systems
     Phys. Chem. Chem. Phys., 2020 22(16)8499-8512
     doi.org/10.1039/D0CP00502A

List of suggested additional citations. These are papers that are important in the 'surrounding' of 
of this run, or papers that preceded the highly important papers. If you like your results we are grateful for a citation.

  1. Neese,F.
     The ORCA program system
     WIRES Comput. Molec. Sci., 2012 2(1)73-78
     doi.org/10.1002/wcms.81
  2. Neese,F.
     Software update: the ORCA program system, version 4.0
     WIRES Comput. Molec. Sci., 2018 8(1)1-6
     doi.org/10.1002/wcms.1327
  3. Neese,F.; Wennmohs,F.; Becker,U.; Riplinger,C.
     The ORCA quantum chemistry program package
     J. Chem. Phys., 2020 152 Art. No. L224108
     doi.org/10.1063/5.0004608

List of optional additional citations

  1. Neese,F.
     Approximate second-order SCF convergence for spin unrestricted wavefunctions
     Chem. Phys. Lett., 2000 325(1-3)93-98
     doi.org/10.1016/s0009-2614(00)00662-x

Timings for individual modules:

Sum of individual times          ...       74.795 sec (=   1.247 min)
Startup calculation              ...        2.688 sec (=   0.045 min)   3.6 %
SCF iterations                   ...       38.127 sec (=   0.635 min)  51.0 %
Property calculations            ...        0.164 sec (=   0.003 min)   0.2 %
SCF Gradient evaluation          ...       33.815 sec (=   0.564 min)  45.2 %
                             ****ORCA TERMINATED NORMALLY****
TOTAL RUN TIME: 0 days 0 hours 1 minutes 15 seconds 833 msec
  ------------------------------------------------------------------------
          * successful ORCA run, taking over control again...

         :::::::::::::::::::::::::::::::::::::::::::::::::::::
         ::                  ORCA SUMMARY                   ::
         :::::::::::::::::::::::::::::::::::::::::::::::::::::
         :: total energy            -767.466994458617 Eh    ::
         :: gradient norm              0.000498051449 Eh/a0 ::
         :: HOMO-LUMO gap              0.000000000000 eV    ::
         :::::::::::::::::::::::::::::::::::::::::::::::::::::

           -------------------------------------------------
          |                Property Printout                |
           -------------------------------------------------
           -------------------------------------------------
          |                Geometry Summary                 |
           -------------------------------------------------

      molecular mass/u    :      230.2596879
   center of mass at/Å    :       -0.0066578       0.0123804      -0.0017781
  moments of inertia/u·Å² :        0.3825169E+03   0.2456807E+04   0.2564656E+04
rotational constants/cm⁻¹ :        0.4407030E-01   0.6861601E-02   0.6573058E-02

 * 30 selected distances

     #   Z          #   Z                                           value/Å
     1   6 C        2   6 C                                       1.5267757 (max)
     2   6 C        3   1 H                                       1.0953743
     4   6 C        5   6 C                                       1.4163392
     5   6 C        6   6 C                                       1.3743200
     6   6 C        7   6 C                                       1.4169072
     7   6 C        8   6 C                                       1.4174371
     8   6 C        9   6 C                                       1.3788279
     9   6 C       10   6 C                                       1.4175390
    10   6 C       11   6 C                                       1.3692770
     7   6 C       12   6 C                                       1.4288027
    11   6 C       12   6 C                                       1.4182570
     4   6 C       13   6 C                                       1.3776806
    12   6 C       13   6 C                                       1.4138317
     9   6 C       14   8 O                                       1.3692221
    14   8 O       15   6 C                                       1.4360713
    16   6 C       17   8 O                                       1.2172330
    16   6 C       18   8 O                                       1.3518661
     1   6 C       19   1 H                                       1.0931697
     1   6 C       20   1 H                                       1.0930161
     1   6 C       21   1 H                                       1.0938231
     5   6 C       22   1 H                                       1.0867486
     6   6 C       23   1 H                                       1.0863790
     8   6 C       24   1 H                                       1.0836746
    10   6 C       25   1 H                                       1.0853797
    11   6 C       26   1 H                                       1.0861986
    13   6 C       27   1 H                                       1.0871724
    15   6 C       28   1 H                                       1.0959421
    15   6 C       29   1 H                                       1.0904342
    15   6 C       30   1 H                                       1.0958589
    18   8 O       31   1 H                                       0.9730277 (min)

 * 4 distinct bonds (by element types)

   Z      Z             #   av. dist./Å        max./Å        min./Å
   1 H    6 C          13     1.0902439     1.0959421     1.0836746
   6 C    6 C          12     1.4129996     1.5267757     1.3692770
   1 H    8 O           1     0.9730277     0.9730277     0.9730277
   6 C    8 O           4     1.3435981     1.4360713     1.2172330


optimized geometry written to: xtbopt.coord


           -------------------------------------------------
          | TOTAL ENERGY             -767.466994458617 Eh   |
          | GRADIENT NORM               0.000498051449 Eh/α |
           -------------------------------------------------

------------------------------------------------------------------------
 * finished run on 2025/04/11 at 16:39:15.924     
------------------------------------------------------------------------
 total:
 * wall-time:     0 d,  0 h,  6 min, 33.723 sec
 *  cpu-time:     0 d,  0 h,  0 min,  1.898 sec
 * ratio c/w:     0.005 speedup
 SCF:
 * wall-time:     0 d,  0 h,  1 min,  4.652 sec
 *  cpu-time:     0 d,  0 h,  0 min,  0.184 sec
 * ratio c/w:     0.003 speedup
 ANC optimizer:
 * wall-time:     0 d,  0 h,  5 min, 29.024 sec
 *  cpu-time:     0 d,  0 h,  0 min,  1.701 sec
 * ratio c/w:     0.005 speedup

