
                                 *****************
                                 * O   R   C   A *
                                 *****************

                                            #,                                       
                                            ###                                      
                                            ####                                     
                                            #####                                    
                                            ######                                   
                                           ########,                                 
                                     ,,################,,,,,                         
                               ,,#################################,,                 
                          ,,##########################################,,             
                       ,#########################################, ''#####,          
                    ,#############################################,,   '####,        
                  ,##################################################,,,,####,       
                ,###########''''           ''''###############################       
              ,#####''   ,,,,##########,,,,          '''####'''          '####       
            ,##' ,,,,###########################,,,                        '##       
           ' ,,###''''                  '''############,,,                           
         ,,##''                                '''############,,,,        ,,,,,,###''
      ,#''                                            '''#######################'''  
     '                                                          ''''####''''         
             ,#######,   #######,   ,#######,      ##                                
            ,#'     '#,  ##    ##  ,#'     '#,    #''#        ,####,   ,####,        
            ##       ##  ##   ,#'  ##            #'  '#       #'       #'  '#        
            ##       ##  #######   ##           ,######,      #####,   #    #        
            '#,     ,#'  ##    ##  '#,     ,#' ,#      #,     #,   #   #,  ,#        
             '#######'   ##     ##  '#######'  #'      '#     '####' # '####'        



                #########################################################
                #                        -***-                          #
                #          Department of theory and spectroscopy        #
                #                                                       #
                #                      Frank Neese                      #
                #                                                       #
                #     Directorship, Architecture, Infrastructure        #
                #                    SHARK, DRIVERS                     #
                #        Core code/Algorithms in most modules           #
                #                                                       #
                #        Max Planck Institute fuer Kohlenforschung      #
                #                Kaiser Wilhelm Platz 1                 #
                #                 D-45470 Muelheim/Ruhr                 #
                #                      Germany                          #
                #                                                       #
                #                  All rights reserved                  #
                #                        -***-                          #
                #########################################################


                         Program Version 6.0.0  -   RELEASE  -


 With contributions from (in alphabetic order):
   Daniel Aravena         : Magnetic Suceptibility
   Michael Atanasov       : Ab Initio Ligand Field Theory (pilot matlab implementation)
   Alexander A. Auer      : GIAO ZORA, VPT2 properties, NMR spectrum
   Ute Becker             : All parallelization in ORCA, NUMFREQ, NUMCALC
   Giovanni Bistoni       : ED, misc. LED, open-shell LED, HFLD
   Martin Brehm           : Molecular dynamics
   Dmytro Bykov           : pre 5.0 version of the SCF Hessian
   Marcos Casanova-Páez   : Triplet and SCS-CIS(D). UHF-(DLPNO)-IP/EA/STEOM-CCSD. UHF-CVS-IP/STEOM-CCSD
   Vijay G. Chilkuri      : MRCI spin determinant printing, contributions to CSF-ICE
   Pauline Colinet        : FMM embedding
   Dipayan Datta          : RHF DLPNO-CCSD density
   Achintya Kumar Dutta   : EOM-CC, STEOM-CC
   Nicolas Foglia         : Exact transition moments, OPA infrastructure, MCD improvements
   Dmitry Ganyushin       : Spin-Orbit,Spin-Spin,Magnetic field MRCI
   Miquel Garcia          : C-PCM and meta-GGA Hessian, CCSD/C-PCM, Gaussian charge scheme
   Tiago L. C. Gouveia    : GS-ROHF, GS-ROCIS
   Yang Guo               : DLPNO-NEVPT2, F12-NEVPT2, CIM, IAO-localization
   Andreas Hansen         : Spin unrestricted coupled pair/coupled cluster methods
   Ingolf Harden          : AUTO-CI MPn and infrastructure 
   Benjamin Helmich-Paris : MC-RPA, TRAH-(SCF,CASSCF), AVAS, COSX integrals, SCF dyn. polar.
   Lee Huntington         : MR-EOM, pCC
   Robert Izsak           : Overlap fitted RIJCOSX, COSX-SCS-MP3, EOM
   Riya Kayal             : Wick's Theorem for AUTO-CI, AUTO-CI UHF-CCSDT
   Emily Kempfer          : AUTO-CI, RHF CISDT and CCSDT
   Christian Kollmar      : KDIIS, OOCD, Brueckner-CCSD(T), CCSD density, CASPT2, CASPT2-K, improved NEVPT2
   Axel Koslowski         : Symmetry handling
   Simone Kossmann        : Meta GGA functionals, TD-DFT gradient, OOMP2, (MP2 Hessian; deprecated post 5.0)
   Lucas Lang             : DCDCAS
   Marvin Lechner         : AUTO-CI (C++ implementation), FIC-MRCC
   Spencer Leger          : CASSCF response
   Dagmar Lenk            : GEPOL surface, SMD, ORCA-2-JSON
   Dimitrios Liakos       : Extrapolation schemes; Compound Job, initial MDCI parallelization
   Dimitrios Manganas     : Further ROCIS development; embedding schemes. LFT, Crystal Embedding
   Dimitrios Pantazis     : SARC Basis sets
   Anastasios Papadopoulos: AUTO-CI, single reference methods and gradients
   Taras Petrenko         : pre 6.0 DFT Hessian and TD-DFT gradient, (ASA, deprecated), ECA, 1-Electron XAS/XES, NRVS
   Peter Pinski           : DLPNO-MP2, DLPNO-MP2 Gradient
   Christoph Reimann      : Effective Core Potentials
   Marius Retegan         : Local ZFS, SOC
   Christoph Riplinger    : Optimizer, TS searches, QM/MM, DLPNO-CCSD(T), (RO)-DLPNO pert. Triples
   Michael Roemelt        : Original ROCIS implementation
   Masaaki Saitow         : Open-shell DLPNO-CCSD energy and density
   Barbara Sandhoefer     : DKH picture change effects
   Kantharuban Sivalingam : CASSCF convergence/infrastructure, NEVPT2 and variants, FIC-MRCI
   Bernardo de Souza      : ESD, SOC TD-DFT
   Georgi Stoychev        : AutoAux, RI-MP2 NMR, DLPNO-MP2 response, X2C
   Van Anh Tran           : RI-MP2 g-tensors
   Willem Van den Heuvel  : Paramagnetic NMR
   Zikuan Wang            : NOTCH, Electric field optimization 
   Frank Wennmohs         : Technical directorship and infrastructure
   Hang Xu                : AUTO-CI-Response properties 


 We gratefully acknowledge several colleagues who have allowed us to
 interface, adapt or use parts of their codes:
   Stefan Grimme, W. Hujo, H. Kruse, P. Pracht,  : VdW corrections, initial TS optimization,
                  C. Bannwarth, S. Ehlert,         DFT functionals, gCP, sTDA/sTD-DF
                  L. Wittmann, M. Mueller
   Ed Valeev, F. Pavosevic, A. Kumar             : LibInt (2-el integral package), F12 methods
   Garnet Chan, S. Sharma, J. Yang, R. Olivares  : DMRG
   Ulf Ekstrom                                   : XCFun DFT Library
   Mihaly Kallay                                 : mrcc  (arbitrary order and MRCC methods)
   Frank Weinhold                                : gennbo (NPA and NBO analysis)
   Simon Mueller                                 : openCOSMO-RS
   Christopher J. Cramer and Donald G. Truhlar   : smd solvation model
   Lars Goerigk                                  : TD-DFT with DH, B97 family of functionals
   V. Asgeirsson, H. Jonsson                     : NEB implementation
   FAccTs GmbH                                   : IRC, NEB, NEB-TS, DLPNO-Multilevel, CI-OPT
                                                   MM, QMMM, 2- and 3-layer-ONIOM, Crystal-QMMM,
                                                   LR-CPCM, SF, NACMEs, symmetry and pop. for TD-DFT,
                                                   nearIR, NL-DFT gradient (VV10), updates on ESD,
                                                   ML-optimized integration grids, MBIS, APM,
                                                   GOAT, DOCKER, SOLVATOR, interface openCOSMO-RS
   S Lehtola, MJT Oliveira, MAL Marques          : LibXC Library
   Liviu Ungur et al                             : ANISO software


 Your calculation uses the libint2 library for the computation of 2-el integrals
 For citations please refer to: http://libint.valeyev.net

 Your ORCA version has been built with support for libXC version: 6.2.2
 For citations please refer to: https://libxc.gitlab.io

 This ORCA versions uses:
   CBLAS   interface :  Fast vector & matrix operations
   LAPACKE interface :  Fast linear algebra routines
   SCALAPACK package :  Parallel linear algebra routines
   Shared memory     :  Shared parallel matrices
   BLAS/LAPACK       :  OpenBLAS 0.3.27  USE64BITINT DYNAMIC_ARCH NO_AFFINITY SkylakeX SINGLE_THREADED
        Core in use  :  SkylakeX
   Copyright (c) 2011-2014, The OpenBLAS Project


Your calculation utilizes the geometrical counterpoise correction gCP
Please cite in your paper:
H.Kruse, S. Grimme J.Chem.Phys., 136, (2012), 154101 
   

Your calculation utilizes the atom-pairwise dispersion correction
based on EEQ partial charges (D4)


================================================================================

----- Orbital basis set information -----
Your calculation utilizes the basis: def2-mTZVPP
   Stefan Grimme, Andreas Hansen, Sebastian Ehlert, and Jan-Michael Mewes 
   J. Chem. Phys. 154, 064103 (2021). DOI: 10.1063/5.0040021

----- AuxJ basis set information -----
Your calculation utilizes the auxiliary basis: def2/J
   F. Weigend, Phys. Chem. Chem. Phys. 8, 1057 (2006).

================================================================================
                                        WARNINGS
                       Please study these warnings very carefully!
================================================================================

Using LibXC functional ID 497 : Re-regularized SCAN exchange by Furness et al
[ 1]  J. W. Furness, A. D. Kaplan, J. Ning, J. P. Perdew, and J. Sun.,  J. Phys. Chem. Lett. 11, 8208-8215 (2020)
[ 2]  J. W. Furness, A. D. Kaplan, J. Ning, J. P. Perdew, and J. Sun.,  J. Phys. Chem. Lett. 11, 9248-9248 (2020)
Using LibXC functional ID 498 : Re-regularized SCAN correlation by Furness et al
[ 1]  J. W. Furness, A. D. Kaplan, J. Ning, J. P. Perdew, and J. Sun.,  J. Phys. Chem. Lett. 11, 8208-8215 (2020)
[ 2]  J. W. Furness, A. D. Kaplan, J. Ning, J. P. Perdew, and J. Sun.,  J. Phys. Chem. Lett. 11, 9248-9248 (2020)
Using LibXC functional ID 497 : Re-regularized SCAN exchange by Furness et al
[ 1]  J. W. Furness, A. D. Kaplan, J. Ning, J. P. Perdew, and J. Sun.,  J. Phys. Chem. Lett. 11, 8208-8215 (2020)
[ 2]  J. W. Furness, A. D. Kaplan, J. Ning, J. P. Perdew, and J. Sun.,  J. Phys. Chem. Lett. 11, 9248-9248 (2020)
Using LibXC functional ID 498 : Re-regularized SCAN correlation by Furness et al
[ 1]  J. W. Furness, A. D. Kaplan, J. Ning, J. P. Perdew, and J. Sun.,  J. Phys. Chem. Lett. 11, 8208-8215 (2020)
[ 2]  J. W. Furness, A. D. Kaplan, J. Ning, J. P. Perdew, and J. Sun.,  J. Phys. Chem. Lett. 11, 9248-9248 (2020)

================================================================================
                                       INPUT FILE
================================================================================
NAME = sp_gas.inp
|  1> ! r2scan-3c def2/J RI DEFGRID2 scfconv6 printgap
|  2> %output
|  3>     printlevel normal
|  4> end
|  5> * xyz 0 1
|  6> C -3.3337535978 -0.9015902277 0.4518503878
|  7> C -2.8169061762 0.4682727071 0.0259158464
|  8> C -1.4117904485 0.4170676496 -0.5723239937
|  9> C -0.3500185193 -0.0101346735 0.4406133119
| 10> C 1.0454375069 0.216909098 -0.0793131646
| 11> O 1.3656012168 1.0703206148 -0.8795683376
| 12> O 1.9029108124 -0.6357228056 0.4723205743
| 13> C 3.2911588664 -0.5480699528 0.1331702148
| 14> H -3.2939193731 -1.5978671725 -0.3825765362
| 15> H -2.74295573 -1.3059600198 1.2688889133
| 16> H -4.365654671 -0.8255495985 0.7852664721
| 17> H -3.4924141408 0.8849601954 -0.723572075
| 18> H -2.8199787359 1.1423100227 0.884705682
| 19> H -1.1415697591 1.4049664757 -0.9516281035
| 20> H -1.4001016913 -0.2727547068 -1.4185419974
| 21> H -0.4442103973 -1.0586430751 0.7187370893
| 22> H -0.4487192512 0.5920103489 1.3479371911
| 23> H 3.5635297311 -1.4505438757 -0.4116520726
| 24> H 3.8486668781 -0.4848901312 1.0651201084
| 25> H 3.466141169 0.3339752317 -0.4837367652
| 26> *
| 27> 
| 28>                          ****END OF INPUT****
================================================================================

                       ****************************
                       * Single Point Calculation *
                       ****************************

---------------------------------
CARTESIAN COORDINATES (ANGSTROEM)
---------------------------------
  C     -3.333754   -0.901590    0.451850
  C     -2.816906    0.468273    0.025916
  C     -1.411790    0.417068   -0.572324
  C     -0.350019   -0.010135    0.440613
  C      1.045438    0.216909   -0.079313
  O      1.365601    1.070321   -0.879568
  O      1.902911   -0.635723    0.472321
  C      3.291159   -0.548070    0.133170
  H     -3.293919   -1.597867   -0.382577
  H     -2.742956   -1.305960    1.268889
  H     -4.365655   -0.825550    0.785266
  H     -3.492414    0.884960   -0.723572
  H     -2.819979    1.142310    0.884706
  H     -1.141570    1.404966   -0.951628
  H     -1.400102   -0.272755   -1.418542
  H     -0.444210   -1.058643    0.718737
  H     -0.448719    0.592010    1.347937
  H      3.563530   -1.450544   -0.411652
  H      3.848667   -0.484890    1.065120
  H      3.466141    0.333975   -0.483737

----------------------------
CARTESIAN COORDINATES (A.U.)
----------------------------
  NO LB      ZA    FRAG     MASS         X           Y           Z
   0 C     6.0000    0    12.011   -6.299881   -1.703759    0.853873
   1 C     6.0000    0    12.011   -5.323181    0.884907    0.048974
   2 C     6.0000    0    12.011   -2.667897    0.788144   -1.081536
   3 C     6.0000    0    12.011   -0.661439   -0.019152    0.832638
   4 C     6.0000    0    12.011    1.975591    0.409899   -0.149880
   5 O     8.0000    0    15.999    2.580612    2.022613   -1.662143
   6 O     8.0000    0    15.999    3.595980   -1.201342    0.892557
   7 C     6.0000    0    12.011    6.219389   -1.035702    0.251655
   8 H     1.0000    0     1.008   -6.224606   -3.019531   -0.722965
   9 H     1.0000    0     1.008   -5.183435   -2.467907    2.397853
  10 H     1.0000    0     1.008   -8.249892   -1.560063    1.483939
  11 H     1.0000    0     1.008   -6.599706    1.672332   -1.367353
  12 H     1.0000    0     1.008   -5.328988    2.158653    1.671851
  13 H     1.0000    0     1.008   -2.157254    2.655002   -1.798316
  14 H     1.0000    0     1.008   -2.645809   -0.515432   -2.680656
  15 H     1.0000    0     1.008   -0.839436   -2.000545    1.358216
  16 H     1.0000    0     1.008   -0.847956    1.118737    2.547232
  17 H     1.0000    0     1.008    6.734095   -2.741131   -0.777910
  18 H     1.0000    0     1.008    7.272926   -0.916310    2.012785
  19 H     1.0000    0     1.008    6.550058    0.631122   -0.914130

--------------------------------
INTERNAL COORDINATES (ANGSTROEM)
--------------------------------
 C      0   0   0     0.000000000000     0.00000000     0.00000000
 C      1   0   0     1.524819973279     0.00000000     0.00000000
 C      2   1   0     1.528025874266   113.01356989     0.00000000
 C      3   2   1     1.528366264864   112.87481752   294.57895317
 C      4   3   2     1.506376425798   111.88073275   191.75076645
 O      5   4   3     1.212940377783   125.32999252    28.38122228
 O      5   4   3     1.329113017984   110.95917913   207.41208939
 C      7   5   4     1.431760681255   119.20621194   181.92640515
 H      1   2   3     1.087500179684   110.39217417   304.75092412
 H      1   2   3     1.086328219974   111.10983503    65.29116445
 H      1   2   3     1.087091664686   110.15620418   185.12686725
 H      2   1   3     1.091637127194   108.96281645   120.36765163
 H      2   1   3     1.091721450359   109.51027053   237.83752036
 H      3   2   1     1.092169821640   109.46149231   174.10010227
 H      3   2   1     1.091822522309   109.53959837    56.54139599
 H      4   3   2     1.088850225542   112.23156018    69.80992877
 H      4   3   2     1.093415330167   109.47050855   309.78859556
 H      8   7   5     1.088795846015   108.07984089   246.26410660
 H      8   7   5     1.087813162794   107.31033916   127.19402110
 H      8   7   5     1.090502973722   109.82231173     6.65708877

---------------------------
INTERNAL COORDINATES (A.U.)
---------------------------
 C      0   0   0     0.000000000000     0.00000000     0.00000000
 C      1   0   0     2.881492153031     0.00000000     0.00000000
 C      2   1   0     2.887550427908   113.01356989     0.00000000
 C      3   2   1     2.888193672918   112.87481752   294.57895317
 C      4   3   2     2.846638899354   111.88073275   191.75076645
 O      5   4   3     2.292125130785   125.32999252    28.38122228
 O      5   4   3     2.511659605019   110.95917913   207.41208939
 C      7   5   4     2.705635576888   119.20621194   181.92640515
 H      1   2   3     2.055077510194   110.39217417   304.75092412
 H      1   2   3     2.052862827300   111.10983503    65.29116445
 H      1   2   3     2.054305528726   110.15620418   185.12686725
 H      2   1   3     2.062895208017   108.96281645   120.36765163
 H      2   1   3     2.063054555706   109.51027053   237.83752036
 H      3   2   1     2.063901854633   109.46149231   174.10010227
 H      3   2   1     2.063245554010   109.53959837    56.54139599
 H      4   3   2     2.057628727132   112.23156018    69.80992877
 H      4   3   2     2.066255524648   109.47050855   309.78859556
 H      8   7   5     2.057525964720   108.07984089   246.26410660
 H      8   7   5     2.055668962556   107.31033916   127.19402110
 H      8   7   5     2.060751968560   109.82231173     6.65708877

---------------------
BASIS SET INFORMATION
---------------------
There are 3 groups of distinct atoms

 Group   1 Type C   : 11s6p1d contracted to 5s3p1d pattern {62111/411/1}
 Group   2 Type O   : 11s6p2d contracted to 5s3p2d pattern {62111/411/11}
 Group   3 Type H   : 4s1p contracted to 2s1p pattern {31/1}

Atom   0C    basis set group =>   1
Atom   1C    basis set group =>   1
Atom   2C    basis set group =>   1
Atom   3C    basis set group =>   1
Atom   4C    basis set group =>   1
Atom   5O    basis set group =>   2
Atom   6O    basis set group =>   2
Atom   7C    basis set group =>   1
Atom   8H    basis set group =>   3
Atom   9H    basis set group =>   3
Atom  10H    basis set group =>   3
Atom  11H    basis set group =>   3
Atom  12H    basis set group =>   3
Atom  13H    basis set group =>   3
Atom  14H    basis set group =>   3
Atom  15H    basis set group =>   3
Atom  16H    basis set group =>   3
Atom  17H    basis set group =>   3
Atom  18H    basis set group =>   3
Atom  19H    basis set group =>   3
---------------------------------
AUXILIARY/J BASIS SET INFORMATION
---------------------------------
There are 3 groups of distinct atoms

 Group   1 Type C   : 12s5p4d2f1g contracted to 6s4p3d1f1g pattern {711111/2111/211/2/1}
 Group   2 Type O   : 12s5p4d2f1g contracted to 6s4p3d1f1g pattern {711111/2111/211/2/1}
 Group   3 Type H   : 5s2p1d contracted to 3s1p1d pattern {311/2/1}

Atom   0C    basis set group =>   1
Atom   1C    basis set group =>   1
Atom   2C    basis set group =>   1
Atom   3C    basis set group =>   1
Atom   4C    basis set group =>   1
Atom   5O    basis set group =>   2
Atom   6O    basis set group =>   2
Atom   7C    basis set group =>   1
Atom   8H    basis set group =>   3
Atom   9H    basis set group =>   3
Atom  10H    basis set group =>   3
Atom  11H    basis set group =>   3
Atom  12H    basis set group =>   3
Atom  13H    basis set group =>   3
Atom  14H    basis set group =>   3
Atom  15H    basis set group =>   3
Atom  16H    basis set group =>   3
Atom  17H    basis set group =>   3
Atom  18H    basis set group =>   3
Atom  19H    basis set group =>   3

Checking for AutoStart:
The File: sp_gas.gbw exists
Trying to determine its content:
     ... Fine, the file contains calculation information
     ... Fine, the calculation information was read
     ... Fine, the file contains a basis set
     ... Fine, the basis set was read
     ... Fine, the file contains a geometry
     ... Fine, the geometry was read
     ... Fine, the file contains a set of orbitals
     ... Fine, the orbitals can be read
     => possible old guess file was deleted
     => GBW file was renamed to GES file
     => GES file is set as startup file
     => Guess is set to MORead
     ... now leaving AutoStart

------------------------------------------------------------------------------
                             ORCA STARTUP CALCULATIONS
                           -- RI-GTO INTEGRALS CHOSEN --
------------------------------------------------------------------------------
------------------------------------------------------------------------------
                   ___                                                        
                  /   \      - P O W E R E D   B Y -                         
                 /     \                                                     
                 |  |  |   _    _      __       _____    __    __             
                 |  |  |  | |  | |    /  \     |  _  \  |  |  /  |          
                  \  \/   | |  | |   /    \    | | | |  |  | /  /          
                 / \  \   | |__| |  /  /\  \   | |_| |  |  |/  /          
                |  |  |   |  __  | /  /__\  \  |    /   |      \           
                |  |  |   | |  | | |   __   |  |    \   |  |\   \          
                \     /   | |  | | |  |  |  |  | |\  \  |  | \   \       
                 \___/    |_|  |_| |__|  |__|  |_| \__\ |__|  \__/        
                                                                              
                      - O R C A' S   B I G   F R I E N D -                    
                                      &                                       
                       - I N T E G R A L  F E E D E R -                       
                                                                              
 v1 FN, 2020, v2 2021, v3 2022-2024                                           
------------------------------------------------------------------------------


----------------------
SHARK INTEGRAL PACKAGE
----------------------

Number of atoms                             ...     20
Number of basis functions                   ...    222
Number of shells                            ...    110
Maximum angular momentum                    ...      2
Integral batch strategy                     ... SHARK/LIBINT Hybrid
RI-J (if used) integral strategy            ... SPLIT-RIJ (Revised 2003 algorithm where possible)
Printlevel                                  ...      1
Contraction scheme used                     ... SEGMENTED contraction
Prescreening option                         ... SCHWARTZ
   Thresh                                   ... 1.000e-10
   Tcut                                     ... 1.000e-11
   Tpresel                                  ... 1.000e-11 
Coulomb Range Separation                    ... NOT USED
Exchange Range Separation                   ... NOT USED
Multipole approximations                    ... NOT USED
Finite Nucleus Model                        ... NOT USED
CABS basis                                  ... NOT available
Auxiliary Coulomb fitting basis             ... AVAILABLE
   # of basis functions in Aux-J            ...    524
   # of shells in Aux-J                     ...    180
   Maximum angular momentum in Aux-J        ...      4
Auxiliary J/K fitting basis                 ... NOT available
Auxiliary Correlation fitting basis         ... NOT available
Auxiliary 'external' fitting basis          ... NOT available

Checking pre-screening integrals            ... done (  0.0 sec) Dimension = 110
Check shell pair data                       ... done (  0.0 sec)
Shell pair information
Shell pair cut-off parameter TPreSel        ...   1.0e-11
Total number of shell pairs                 ...      6105
Shell pairs after pre-screening             ...      5163
Total number of primitive shell pairs       ...     21533
Primitive shell pairs kept                  ...     12888
          la=0 lb=0:   1731 shell pairs
          la=1 lb=0:   1949 shell pairs
          la=1 lb=1:    571 shell pairs
          la=2 lb=0:    550 shell pairs
          la=2 lb=1:    313 shell pairs
          la=2 lb=2:     49 shell pairs

Calculating one electron integrals          ... done (  0.0 sec)
Calculating RI/J V-Matrix + Cholesky decomp.... done (  0.1 sec)
Calculating Nuclear repulsion               ... done (  0.0 sec) ENN=    384.134943891846 Eh

Diagonalization of the overlap matrix:
Smallest eigenvalue                        ... 1.160e-04
Time for diagonalization                   ...    0.005 sec
Threshold for overlap eigenvalues          ... 1.000e-07
Number of eigenvalues below threshold      ... 0
Time for construction of square roots      ...    0.016 sec
Total time needed                          ...    0.030 sec

-------------------
DFT GRID GENERATION
-------------------

General Integration Accuracy     IntAcc      ... 4.388
Radial Grid Type                 RadialGrid  ... OptM3 with GC (2021)
Angular Grid (max. ang.)         AngularGrid ... 4 (Lebedev-302)
Angular grid pruning method      GridPruning ... 4 (adaptive)
Weight generation scheme         WeightScheme... mBecke (2022)
Basis function cutoff            BFCut       ... 1.0000e-10
Integration weight cutoff        WCut        ... 1.0000e-14
Partially contracted basis set               ... off
Rotationally invariant grid construction     ... off
Angular grids for H and He will be reduced by one unit
Diffuse basis detected: some atoms will have their outermost
                        angular grid increased by 1.

Total number of grid points                  ...    87368
Total number of batches                      ...     1377
Average number of points per batch           ...       63
Average number of grid points per atom       ...     4368
Initializing property integral containers    ... done (  0.0 sec)

SHARK setup successfully completed in   1.2 seconds

Maximum memory used throughout the entire STARTUP-calculation: 39.1 MB
-------------------------------------------------------------------------------
                                 ORCA GUESS
                   Start orbitals & Density for SCF / CASSCF
-------------------------------------------------------------------------------

------------
SCF SETTINGS
------------
Hamiltonian:
 Density Functional     Method          .... DFT(GTOs)
  Functional kind                       .... Exchange
  Functional name                       .... Re-regularized SCAN exchange by Furness et al
  Functional family                     .... MGGA
  Functional refs                              
    [ 0] J. W. Furness, A. D. Kaplan, J. Ning, J. P. Perdew, and J. Sun.,  J. Phys. Chem. Lett. 11, 8208-8215 (2020), doi: 10.1021/acs.jpclett.0c02405
    [ 1] J. W. Furness, A. D. Kaplan, J. Ning, J. P. Perdew, and J. Sun.,  J. Phys. Chem. Lett. 11, 9248-9248 (2020), doi: 10.1021/acs.jpclett.0c03077
  Functional external parameters        .... 6
    Parameter  0 _c1        =  6.670000e-01 : c1 parameter        
    Parameter  1 _c2        =  8.000000e-01 : c2 parameter        
    Parameter  2 _d         =  1.240000e+00 : d parameter         
    Parameter  3 _k1        =  6.500000e-02 : k1 parameter        
    Parameter  4 _eta       =  1.000000e-03 : eta parameter       
    Parameter  5 _dp2       =  3.610000e-01 : dp2 parameter       
  Functional kind                       .... Correlation
  Functional name                       .... Re-regularized SCAN correlation by Furness et al
  Functional family                     .... MGGA
  Functional refs                              
    [ 0] J. W. Furness, A. D. Kaplan, J. Ning, J. P. Perdew, and J. Sun.,  J. Phys. Chem. Lett. 11, 8208-8215 (2020), doi: 10.1021/acs.jpclett.0c02405
    [ 1] J. W. Furness, A. D. Kaplan, J. Ning, J. P. Perdew, and J. Sun.,  J. Phys. Chem. Lett. 11, 9248-9248 (2020), doi: 10.1021/acs.jpclett.0c03077
  Functional external parameters        .... 1
    Parameter  0 _eta       =  1.000000e-03 : Regularization parameter
 Gradients option       PostSCFGGA      .... off
 RI-approximation to the Coulomb term is turned on
   Number of AuxJ basis functions       .... 524


General Settings:
 Integral files         IntName         .... sp_gas
 Hartree-Fock type      HFTyp           .... RHF
 Total Charge           Charge          ....    0
 Multiplicity           Mult            ....    1
 Number of Electrons    NEL             ....   64
 Basis Dimension        Dim             ....  222
 Nuclear Repulsion      ENuc            ....    384.1349438918 Eh

Convergence Acceleration:
 AO-DIIS                CNVDIIS         .... on
   Start iteration      DIISMaxIt       ....    12
   Startup error        DIISStart       ....  0.200000
   # of expansion vecs  DIISMaxEq       ....     5
   Bias factor          DIISBfac        ....   1.050
   Max. coefficient     DIISMaxC        ....  10.000
 MO-DIIS                CNVKDIIS        .... off
 Trust-Rad. Augm. Hess. CNVTRAH         .... auto
   Auto Start mean grad. ratio tolernc. ....  1.125000
   Auto Start start iteration           ....     1
   Auto Start num. interpolation iter.  ....    10
   Max. Number of Micro iterations      ....    24
   Max. Number of Macro iterations      .... Maxiter - #DIIS iter
   Number of Davidson start vectors     ....     2
   Converg. threshold    (grad. norm)   ....   3.330e-04
   Grad. Scal. Fac. for Micro threshold ....   0.100
   Minimum threshold for Micro iter.    ....   1.000e-02
   NR start threshold (gradient norm)   ....   1.000e-04
   Initial trust radius                 ....   0.400
   Minimum AH scaling param. (alpha)    ....   1.000
   Maximum AH scaling param. (alpha)    .... 1000.000
   Quad. conv. algorithm                .... NR
   White noise on init. David. guess    .... on
   Maximum white noise                  ....   0.010
   Pseudo random numbers                .... off
   Inactive MOs                         .... canonical
   Orbital update algorithm             .... Taylor
   Preconditioner                       .... Diag
   Full preconditioner red. dimension   ....   250
   COSX micro iterations for RIJONX calc.... off
 SOSCF                  CNVSOSCF        .... on
   Start iteration      SOSCFMaxIt      ....   150
   Startup grad/error   SOSCFStart      ....  0.003300
   Hessian update       SOSCFHessUp     .... L-BFGS
 Level Shifting         CNVShift        .... on
   Level shift para.    LevelShift      ....    0.2500
   Turn off err/grad.   ShiftErr        ....    0.0010
 Zerner damping         CNVZerner       .... off
 Static damping         CNVDamp         .... on
   Fraction old density DampFac         ....    0.7000
   Max. Damping (<1)    DampMax         ....    0.9800
   Min. Damping (>=0)   DampMin         ....    0.0000
   Turn off err/grad.   DampErr         ....    0.1000

SCF Procedure:
 Maximum # iterations   MaxIter         ....   125
 SCF integral mode      SCFMode         .... Direct
   Integral package                     .... SHARK and LIBINT hybrid scheme
 Reset frequency        DirectResetFreq ....    20
 Integral Threshold     Thresh          ....  1.000e-10 Eh
 Primitive CutOff       TCut            ....  1.000e-11 Eh

Convergence Tolerance:
 Convergence Check Mode ConvCheckMode   .... Total+1el-Energy
 Convergence forced     ConvForced      .... 0
 Energy Change          TolE            ....  1.000e-06 Eh
 1-El. energy change                    ....  1.000e-03 Eh
 Orbital Gradient       TolG            ....  3.330e-04
 Orbital Rotation angle TolX            ....  3.330e-04
 DIIS Error             TolErr          ....  1.000e-06

---------------------
INITIAL GUESS: MOREAD
---------------------
Guess MOs are being read from file: sp_gas.ges
Input Geometry matches current geometry (good)
Atom 0: N(Shells)= 9 and 6 - projection required
Input basis set needs projection
NBasis(read)= 136
NBasis(calc)= 222
Basis set overlap was calculated
Using GuessMode=FMatrix for the initial guess
C*T matrix was formed
Effective Fockian was calculated
Effective Fockian was diagonalized
Initial density was built
                      ------------------
                      INITIAL GUESS DONE (   0.0 sec)
                      ------------------
             **** ENERGY FILE WAS UPDATED (sp_gas.en.tmp) ****
Finished Guess after   0.3 sec
Maximum memory used throughout the entire GUESS-calculation: 14.8 MB

-------------------------------------------------------------------------------------------
                                      ORCA LEAN-SCF
                              memory conserving SCF solver
-------------------------------------------------------------------------------------------

----------------------------------------D-I-I-S--------------------------------------------
Iteration    Energy (Eh)           Delta-E    RMSDP     MaxDP     DIISErr   Damp  Time(sec)
-------------------------------------------------------------------------------------------
               ***  Starting incremental Fock matrix formation  ***
    1    -386.0413703522276023     0.00e+00  3.60e-03  1.18e-01  6.26e-01  0.700   2.7
    2    -386.0992445947569536    -5.79e-02  2.90e-03  8.73e-02  4.40e-01  0.700   2.6
    3    -386.1401401224291590    -4.09e-02  2.12e-03  6.17e-02  3.08e-01  0.700   2.5
    4    -386.1688468299934698    -2.87e-02  1.52e-03  4.35e-02  2.16e-01  0.700   2.5
                               ***Turning on AO-DIIS***
    5    -386.1889799938418832    -2.01e-02  1.09e-03  3.11e-02  1.51e-01  0.700   2.4
    6    -386.2030911975460299    -1.41e-02  7.73e-04  2.19e-02  1.06e-01  0.700   2.4
    7    -386.2129824421211310    -9.89e-03  5.44e-04  1.54e-02  7.40e-02  0.700   2.4
    8    -386.2199119868479897    -6.93e-03  1.28e-03  3.60e-02  5.19e-02  0.000   2.3
                              *** Initializing SOSCF ***
---------------------------------------S-O-S-C-F--------------------------------------
Iteration    Energy (Eh)           Delta-E    RMSDP     MaxDP     MaxGrad    Time(sec)
--------------------------------------------------------------------------------------
    9    -386.2361005618316199    -1.62e-02  7.52e-06  3.17e-04  7.11e-05     2.5
                  *** Gradient check signals convergence ***

               *****************************************************
               *                     SUCCESS                       *
               *           SCF CONVERGED AFTER   9 CYCLES          *
               *****************************************************

             **** ENERGY FILE WAS UPDATED (sp_gas.en.tmp) ****

----------------
TOTAL SCF ENERGY
----------------

Total Energy       :       -386.23610056183162 Eh          -10510.01862 eV

Components:
Nuclear Repulsion  :        384.13494389184649 Eh           10452.84324 eV
Electronic Energy  :       -770.37104445367811 Eh          -20962.86185 eV
One Electron Energy:      -1285.46162000657660 Eh          -34979.18899 eV
Two Electron Energy:        515.09057555289849 Eh           14016.32714 eV

Virial components:
Potential Energy   :       -770.87899161856899 Eh          -20976.68380 eV
Kinetic Energy     :        384.64289105673731 Eh           10466.66518 eV
Virial Ratio       :          2.00414204848741

DFT components:
N(Alpha)           :       31.999957998035 electrons
N(Beta)            :       31.999957998035 electrons
N(Total)           :       63.999915996070 electrons
E(X)               :      -52.079337512630 Eh       
E(C)               :       -2.038409473994 Eh       
E(XC)              :      -54.117746986625 Eh       

---------------
SCF CONVERGENCE
---------------

  Last Energy change         ...    1.6189e-02  Tolerance :   1.0000e-06
  Last MAX-Density change    ...    3.1696e-04  Tolerance :   1.0000e-05
  Last RMS-Density change    ...    7.5205e-06  Tolerance :   1.0000e-06
  Last DIIS Error            ...    7.1053e-05  Tolerance :   1.0000e-06
  Last Orbital Gradient      ...    7.1053e-05  Tolerance :   3.3300e-04
  Last Orbital Rotation      ...    7.1053e-05  Tolerance :   3.3300e-04


----------------
ORBITAL ENERGIES
----------------

  NO   OCC          E(Eh)            E(eV) 
   0   2.0000     -18.998871      -516.9856 
   1   2.0000     -18.929639      -515.1017 
   2   2.0000     -10.153975      -276.3037 
   3   2.0000     -10.084795      -274.4212 
   4   2.0000     -10.042225      -273.2628 
   5   2.0000     -10.027875      -272.8724 
   6   2.0000     -10.027675      -272.8669 
   7   2.0000     -10.018099      -272.6063 
   8   2.0000      -1.072134       -29.1743 
   9   2.0000      -0.977312       -26.5940 
  10   2.0000      -0.776781       -21.1373 
  11   2.0000      -0.727959       -19.8088 
  12   2.0000      -0.684943       -18.6383 
  13   2.0000      -0.622108       -16.9284 
  14   2.0000      -0.550258       -14.9733 
  15   2.0000      -0.525587       -14.3020 
  16   2.0000      -0.473412       -12.8822 
  17   2.0000      -0.459101       -12.4928 
  18   2.0000      -0.443985       -12.0814 
  19   2.0000      -0.427368       -11.6293 
  20   2.0000      -0.413003       -11.2384 
  21   2.0000      -0.401844       -10.9347 
  22   2.0000      -0.373184       -10.1548 
  23   2.0000      -0.363387        -9.8883 
  24   2.0000      -0.358195        -9.7470 
  25   2.0000      -0.330598        -8.9960 
  26   2.0000      -0.319363        -8.6903 
  27   2.0000      -0.301242        -8.1972 
  28   2.0000      -0.299254        -8.1431 
  29   2.0000      -0.295872        -8.0511 
  30   2.0000      -0.272546        -7.4164 
  31   2.0000      -0.239600        -6.5198 
  32   0.0000      -0.014166        -0.3855 
  33   0.0000       0.069405         1.8886 
  34   0.0000       0.089272         2.4292 
  35   0.0000       0.099976         2.7205 
  36   0.0000       0.119092         3.2406 
  37   0.0000       0.125246         3.4081 
  38   0.0000       0.135064         3.6753 
  39   0.0000       0.143432         3.9030 
  40   0.0000       0.148835         4.0500 
  41   0.0000       0.164322         4.4714 
  42   0.0000       0.166995         4.5442 
*Only the first 10 virtual orbitals were printed.

                    ********************************
                    * MULLIKEN POPULATION ANALYSIS *
                    ********************************

-----------------------
MULLIKEN ATOMIC CHARGES
-----------------------
   0 C :   -0.489512
   1 C :   -0.226391
   2 C :   -0.256953
   3 C :   -0.346547
   4 C :    0.400404
   5 O :   -0.440176
   6 O :   -0.195094
   7 C :   -0.307848
   8 H :    0.145931
   9 H :    0.147868
  10 H :    0.147595
  11 H :    0.146205
  12 H :    0.134350
  13 H :    0.173564
  14 H :    0.140103
  15 H :    0.169398
  16 H :    0.171695
  17 H :    0.148237
  18 H :    0.147330
  19 H :    0.189841
Sum of atomic charges:    0.0000000

--------------------------------
MULLIKEN REDUCED ORBITAL CHARGES
--------------------------------
  0 C s       :     3.327732  s :     3.327732
      pz      :     1.075800  p :     3.134657
      px      :     1.097394
      py      :     0.961463
      dz2     :     0.003125  d :     0.027123
      dxz     :     0.004380
      dyz     :     0.008421
      dx2y2   :     0.007269
      dxy     :     0.003928

  1 C s       :     3.209452  s :     3.209452
      pz      :     1.065910  p :     2.979724
      px      :     0.964073
      py      :     0.949740
      dz2     :     0.004125  d :     0.037216
      dxz     :     0.007804
      dyz     :     0.009411
      dx2y2   :     0.008872
      dxy     :     0.007004

  2 C s       :     3.216678  s :     3.216678
      pz      :     0.966420  p :     3.003898
      px      :     0.912667
      py      :     1.124812
      dz2     :     0.004963  d :     0.036377
      dxz     :     0.009139
      dyz     :     0.008104
      dx2y2   :     0.008995
      dxy     :     0.005176

  3 C s       :     3.225865  s :     3.225865
      pz      :     1.020525  p :     3.085387
      px      :     0.968268
      py      :     1.096594
      dz2     :     0.006271  d :     0.035295
      dxz     :     0.007396
      dyz     :     0.006851
      dx2y2   :     0.010922
      dxy     :     0.003855

  4 C s       :     3.129340  s :     3.129340
      pz      :     0.756970  p :     2.345277
      px      :     0.834894
      py      :     0.753412
      dz2     :     0.023158  d :     0.124979
      dxz     :     0.026861
      dyz     :     0.017948
      dx2y2   :     0.026451
      dxy     :     0.030562

  5 O s       :     3.843056  s :     3.843056
      pz      :     1.388666  p :     4.575981
      px      :     1.771841
      py      :     1.415475
      dz2     :     0.006473  d :     0.021139
      dxz     :     0.000344
      dyz     :     0.007863
      dx2y2   :     0.003589
      dxy     :     0.002870

  6 O s       :     3.701561  s :     3.701561
      pz      :     1.690935  p :     4.471130
      px      :     1.154688
      py      :     1.625507
      dz2     :     0.002103  d :     0.022403
      dxz     :     0.005850
      dyz     :     0.009153
      dx2y2   :     0.007797
      dxy     :    -0.002500

  7 C s       :     3.324178  s :     3.324178
      pz      :     1.090639  p :     2.941013
      px      :     0.719151
      py      :     1.131223
      dz2     :     0.004832  d :     0.042657
      dxz     :     0.011804
      dyz     :     0.005893
      dx2y2   :     0.012566
      dxy     :     0.007563

  8 H s       :     0.835855  s :     0.835855
      pz      :     0.007814  p :     0.018214
      px      :     0.003678
      py      :     0.006722

  9 H s       :     0.833756  s :     0.833756
      pz      :     0.007784  p :     0.018376
      px      :     0.005868
      py      :     0.004724

 10 H s       :     0.834103  s :     0.834103
      pz      :     0.004414  p :     0.018302
      px      :     0.010222
      py      :     0.003666

 11 H s       :     0.835954  s :     0.835954
      pz      :     0.006897  p :     0.017841
      px      :     0.006338
      py      :     0.004606

 12 H s       :     0.847771  s :     0.847771
      pz      :     0.008085  p :     0.017879
      px      :     0.003428
      py      :     0.006367

 13 H s       :     0.808437  s :     0.808437
      pz      :     0.004419  p :     0.017998
      px      :     0.004014
      py      :     0.009565

 14 H s       :     0.841990  s :     0.841990
      pz      :     0.008132  p :     0.017907
      px      :     0.003381
      py      :     0.006394

 15 H s       :     0.812510  s :     0.812510
      pz      :     0.004021  p :     0.018093
      px      :     0.003387
      py      :     0.010684

 16 H s       :     0.810125  s :     0.810125
      pz      :     0.008826  p :     0.018180
      px      :     0.003592
      py      :     0.005762

 17 H s       :     0.834041  s :     0.834041
      pz      :     0.005781  p :     0.017722
      px      :     0.002913
      py      :     0.009028

 18 H s       :     0.834923  s :     0.834923
      pz      :     0.009186  p :     0.017747
      px      :     0.004765
      py      :     0.003796

 19 H s       :     0.791466  s :     0.791466
      pz      :     0.006470  p :     0.018693
      px      :     0.002691
      py      :     0.009531


------------------------
MULLIKEN OVERLAP CHARGES
------------------------
B(  0-C ,  1-C ) :   0.3927 B(  0-C ,  2-C ) :  -0.2017 B(  0-C ,  3-C ) :   0.0547 
B(  0-C ,  8-H ) :   0.8460 B(  0-C ,  9-H ) :   0.8548 B(  0-C , 10-H ) :   0.7877 
B(  0-C , 11-H ) :  -0.0596 B(  0-C , 12-H ) :  -0.0762 B(  1-C ,  2-C ) :   0.4672 
B(  1-C ,  3-C ) :  -0.2047 B(  1-C ,  8-H ) :  -0.0953 B(  1-C ,  9-H ) :  -0.0948 
B(  1-C , 10-H ) :  -0.0674 B(  1-C , 11-H ) :   0.8401 B(  1-C , 12-H ) :   0.8809 
B(  1-C , 13-H ) :  -0.0933 B(  1-C , 14-H ) :  -0.0692 B(  2-C ,  3-C ) :   0.2980 
B(  2-C ,  5-O ) :   0.0564 B(  2-C , 11-H ) :  -0.1070 B(  2-C , 12-H ) :  -0.1272 
B(  2-C , 13-H ) :   0.8363 B(  2-C , 14-H ) :   0.8076 B(  2-C , 15-H ) :  -0.0633 
B(  2-C , 16-H ) :  -0.1010 B(  3-C ,  4-C ) :   0.4892 B(  3-C ,  5-O ) :  -0.2250 
B(  3-C ,  6-O ) :  -0.1523 B(  3-C , 15-H ) :   0.8188 B(  3-C , 16-H ) :   0.8233 
B(  4-C ,  5-O ) :   1.0143 B(  4-C ,  6-O ) :   0.4811 B(  4-C ,  7-C ) :  -0.2250 
B(  4-C , 15-H ) :  -0.0511 B(  4-C , 19-H ) :  -0.0586 B(  5-O ,  6-O ) :  -0.2221 
B(  6-O ,  7-C ) :   0.3500 B(  6-O , 17-H ) :  -0.0773 B(  6-O , 18-H ) :  -0.0806 
B(  6-O , 19-H ) :  -0.0566 B(  7-C , 17-H ) :   0.7936 B(  7-C , 18-H ) :   0.7899 
B(  7-C , 19-H ) :   0.8558 B(  8-H ,  9-H ) :  -0.0503 


                     *******************************
                     * LOEWDIN POPULATION ANALYSIS *
                     *******************************

----------------------
LOEWDIN ATOMIC CHARGES
----------------------
   0 C :   -0.425849
   1 C :   -0.315307
   2 C :   -0.289259
   3 C :   -0.229038
   4 C :    0.363466
   5 O :   -0.444600
   6 O :   -0.603702
   7 C :   -0.046893
   8 H :    0.150737
   9 H :    0.148371
  10 H :    0.151121
  11 H :    0.153837
  12 H :    0.151234
  13 H :    0.174319
  14 H :    0.158745
  15 H :    0.180146
  16 H :    0.183375
  17 H :    0.172849
  18 H :    0.173522
  19 H :    0.192928

-------------------------------
LOEWDIN REDUCED ORBITAL CHARGES
-------------------------------
  0 C s       :     2.972568  s :     2.972568
      pz      :     1.150230  p :     3.389812
      px      :     1.144461
      py      :     1.095121
      dz2     :     0.007459  d :     0.063469
      dxz     :     0.010787
      dyz     :     0.019681
      dx2y2   :     0.017108
      dxy     :     0.008434

  1 C s       :     2.937976  s :     2.937976
      pz      :     1.130555  p :     3.296913
      px      :     1.076983
      py      :     1.089374
      dz2     :     0.008739  d :     0.080418
      dxz     :     0.017380
      dyz     :     0.021067
      dx2y2   :     0.019178
      dxy     :     0.014054

  2 C s       :     2.931435  s :     2.931435
      pz      :     1.093749  p :     3.278894
      px      :     1.039309
      py      :     1.145836
      dz2     :     0.009957  d :     0.078930
      dxz     :     0.020001
      dyz     :     0.018701
      dx2y2   :     0.020488
      dxy     :     0.009783

  3 C s       :     2.919100  s :     2.919100
      pz      :     1.100360  p :     3.235364
      px      :     1.005903
      py      :     1.129101
      dz2     :     0.012569  d :     0.074573
      dxz     :     0.016085
      dyz     :     0.014987
      dx2y2   :     0.023648
      dxy     :     0.007285

  4 C s       :     2.736224  s :     2.736224
      pz      :     0.831080  p :     2.628387
      px      :     0.947068
      py      :     0.850238
      dz2     :     0.043517  d :     0.271923
      dxz     :     0.057328
      dyz     :     0.048067
      dx2y2   :     0.055662
      dxy     :     0.067349

  5 O s       :     3.548615  s :     3.548615
      pz      :     1.457683  p :     4.669712
      px      :     1.729219
      py      :     1.482809
      dz2     :     0.040094  d :     0.226273
      dxz     :     0.039013
      dyz     :     0.058198
      dx2y2   :     0.045533
      dxy     :     0.043434

  6 O s       :     3.468405  s :     3.468405
      pz      :     1.681841  p :     4.670099
      px      :     1.350011
      py      :     1.638247
      dz2     :     0.058373  d :     0.465199
      dxz     :     0.110741
      dyz     :     0.049349
      dx2y2   :     0.126438
      dxy     :     0.120297

  7 C s       :     2.906514  s :     2.906514
      pz      :     1.098783  p :     3.037595
      px      :     0.818560
      py      :     1.120253
      dz2     :     0.010308  d :     0.102784
      dxz     :     0.029162
      dyz     :     0.015960
      dx2y2   :     0.030251
      dxy     :     0.017102

  8 H s       :     0.805900  s :     0.805900
      pz      :     0.019250  p :     0.043362
      px      :     0.008058
      py      :     0.016055

  9 H s       :     0.807748  s :     0.807748
      pz      :     0.018974  p :     0.043881
      px      :     0.014030
      py      :     0.010878

 10 H s       :     0.805333  s :     0.805333
      pz      :     0.009935  p :     0.043546
      px      :     0.025322
      py      :     0.008289

 11 H s       :     0.803130  s :     0.803130
      pz      :     0.016907  p :     0.043034
      px      :     0.015361
      py      :     0.010766

 12 H s       :     0.805790  s :     0.805790
      pz      :     0.019765  p :     0.042976
      px      :     0.007934
      py      :     0.015277

 13 H s       :     0.781358  s :     0.781358
      pz      :     0.010434  p :     0.044324
      px      :     0.009443
      py      :     0.024447

 14 H s       :     0.798107  s :     0.798107
      pz      :     0.019683  p :     0.043148
      px      :     0.007810
      py      :     0.015654

 15 H s       :     0.775243  s :     0.775243
      pz      :     0.009684  p :     0.044611
      px      :     0.007827
      py      :     0.027100

 16 H s       :     0.772284  s :     0.772284
      pz      :     0.021781  p :     0.044341
      px      :     0.008433
      py      :     0.014126

 17 H s       :     0.786587  s :     0.786587
      pz      :     0.013015  p :     0.040564
      px      :     0.005699
      py      :     0.021850

 18 H s       :     0.786005  s :     0.786005
      pz      :     0.022699  p :     0.040472
      px      :     0.009405
      py      :     0.008368

 19 H s       :     0.761516  s :     0.761516
      pz      :     0.015342  p :     0.045557
      px      :     0.006237
      py      :     0.023977


---------------------------------
LOEWDIN BOND ORDERS (THRESH 0.050000)
---------------------------------
B(  0-C ,  1-C ) :   1.1410 B(  0-C ,  2-C ) :   0.0659 B(  0-C ,  8-H ) :   0.9298 
B(  0-C ,  9-H ) :   0.9282 B(  0-C , 10-H ) :   0.9302 B(  1-C ,  2-C ) :   1.1133 
B(  1-C ,  3-C ) :   0.0684 B(  1-C , 11-H ) :   0.8939 B(  1-C , 12-H ) :   0.8954 
B(  2-C ,  3-C ) :   1.0768 B(  2-C ,  4-C ) :   0.0736 B(  2-C ,  5-O ) :   0.0515 
B(  2-C , 13-H ) :   0.8747 B(  2-C , 14-H ) :   0.8885 B(  3-C ,  4-C ) :   0.9224 
B(  3-C ,  5-O ) :   0.1773 B(  3-C ,  6-O ) :   0.1904 B(  3-C , 15-H ) :   0.8612 
B(  3-C , 16-H ) :   0.8576 B(  4-C ,  5-O ) :   2.1701 B(  4-C ,  6-O ) :   1.4542 
B(  4-C ,  7-C ) :   0.0861 B(  5-O ,  6-O ) :   0.4599 B(  5-O ,  7-C ) :   0.0743 
B(  6-O ,  7-C ) :   1.3487 B(  6-O , 17-H ) :   0.1001 B(  6-O , 18-H ) :   0.1000 
B(  6-O , 19-H ) :   0.0939 B(  7-C , 17-H ) :   0.8670 B(  7-C , 18-H ) :   0.8673 
B(  7-C , 19-H ) :   0.8413 

------------------------------------------
LOEWDIN REDUCED ORBITAL POPULATIONS PER MO
-------------------------------------------
THRESHOLD FOR PRINTING IS 0.1%%
                      0         1         2         3         4         5   
                 -18.99887 -18.92964 -10.15397 -10.08479 -10.04222 -10.02788
                   2.00000   2.00000   2.00000   2.00000   2.00000   2.00000
                  --------  --------  --------  --------  --------  --------
 1 C  s               0.0       0.0       0.0       0.0       0.0      12.7
 2 C  s               0.0       0.0       0.0       0.0       0.0      87.0
 3 C  s               0.0       0.0       0.0       0.0      99.7       0.0
 4 C  s               0.0       0.0      98.9       0.0       0.0       0.0
 5 O  s               0.0      99.9       0.0       0.0       0.0       0.0
 5 O  py              0.0       0.0       0.1       0.0       0.0       0.0
 5 O  dyz             0.0       0.0       0.2       0.0       0.0       0.0
 6 O  s              99.9       0.0       0.0       0.0       0.0       0.0
 6 O  px              0.0       0.0       0.1       0.1       0.0       0.0
 6 O  dx2y2           0.0       0.0       0.0       0.2       0.0       0.0
 6 O  dxy             0.0       0.0       0.2       0.0       0.0       0.0
 7 C  s               0.0       0.0       0.0      99.4       0.0       0.0

                      6         7         8         9        10        11   
                 -10.02768 -10.01810  -1.07213  -0.97731  -0.77678  -0.72796
                   2.00000   2.00000   2.00000   2.00000   2.00000   2.00000
                  --------  --------  --------  --------  --------  --------
 0 C  s               0.0      99.7       0.0       0.0       6.3      10.9
 0 C  pz              0.0       0.0       0.0       0.0       0.2       0.1
 0 C  px              0.0       0.0       0.0       0.0       0.6       0.1
 0 C  py              0.1       0.0       0.0       0.0       1.3       0.9
 1 C  s              87.0       0.0       0.0       0.0      15.2      11.7
 1 C  px              0.0       0.0       0.0       0.0       1.6       0.3
 1 C  py              0.0       0.1       0.0       0.0       0.5       0.8
 2 C  s              12.7       0.0       0.1       0.1      20.4       0.6
 2 C  pz              0.0       0.0       0.0       0.0       1.7       0.0
 2 C  px              0.1       0.0       0.2       0.2       0.0       4.9
 2 C  py              0.0       0.0       0.0       0.0       0.2       0.0
 3 C  s               0.0       0.0       1.0       0.2      17.5       7.0
 3 C  pz              0.0       0.0       0.1       0.2       0.7       0.1
 3 C  px              0.0       0.0       1.9       0.1       0.9       2.6
 3 C  py              0.0       0.0       0.0       0.2       0.1       0.1
 4 C  s               0.0       0.0      16.3       4.1       1.7       3.8
 4 C  pz              0.0       0.0       0.0       9.4       1.1       2.6
 4 C  px              0.0       0.0       4.6       0.3       5.0       2.8
 4 C  py              0.0       0.0       0.4      13.6       0.6       2.0
 4 C  dz2             0.0       0.0       0.0       0.1       0.0       0.0
 4 C  dxz             0.0       0.0       0.0       0.4       0.0       0.0
 4 C  dyz             0.0       0.0       0.8       0.5       0.0       0.0
 4 C  dx2y2           0.0       0.0       0.0       0.2       0.1       0.0
 4 C  dxy             0.0       0.0       0.2       0.7       0.0       0.0
 5 O  s               0.0       0.0      12.0      42.3       1.0       1.4
 5 O  pz              0.0       0.0       1.4       1.6       0.1       0.2
 5 O  px              0.0       0.0       0.1       0.4       0.2       0.2
 5 O  py              0.0       0.0       1.7       1.7       0.1       0.2
 5 O  dxz             0.0       0.0       0.0       0.1       0.1       0.2
 5 O  dyz             0.0       0.0       1.1       0.1       0.1       0.2
 5 O  dx2y2           0.0       0.0       0.3       0.0       0.0       0.1
 5 O  dxy             0.0       0.0       0.0       0.1       0.2       0.2
 6 O  s               0.0       0.0      42.4      16.4       0.1       0.0
 6 O  pz              0.0       0.0       1.1       0.2       0.0       0.0
 6 O  px              0.0       0.0       0.0       0.6       2.2      13.6
 6 O  py              0.0       0.0       1.7       0.4       0.1       0.8
 6 O  dxz             0.0       0.0       0.0       0.2       0.0       0.3
 6 O  dyz             0.0       0.0       0.4       0.6       0.0       0.0
 6 O  dx2y2           0.0       0.0       0.0       0.4       0.1       0.1
 6 O  dxy             0.0       0.0       0.3       0.2       0.1       0.4
 7 C  s               0.0       0.0       4.5       1.9       1.0      10.6
 7 C  pz              0.0       0.0       0.1       0.2       0.0       0.1
 7 C  px              0.0       0.0       5.3       1.5       0.1       0.2
 7 C  py              0.0       0.0       0.0       0.1       0.0       0.1
 7 C  dx2y2           0.0       0.0       0.3       0.2       0.0       0.0
 8 H  s               0.0       0.0       0.0       0.0       0.8       1.7
 9 H  s               0.0       0.0       0.0       0.0       0.9       1.7
10 H  s               0.0       0.0       0.0       0.0       0.8       1.8
10 H  px              0.0       0.0       0.0       0.0       0.1       0.1
11 H  s               0.0       0.0       0.0       0.0       1.9       1.9
12 H  s               0.0       0.0       0.0       0.0       1.9       1.8
12 H  pz              0.0       0.0       0.0       0.0       0.1       0.1
13 H  s               0.0       0.0       0.0       0.0       2.5       0.1
13 H  py              0.0       0.0       0.0       0.0       0.2       0.0
14 H  s               0.0       0.0       0.0       0.0       2.6       0.1
14 H  pz              0.0       0.0       0.0       0.0       0.1       0.0
15 H  s               0.0       0.0       0.1       0.0       2.5       1.5
15 H  py              0.0       0.0       0.0       0.0       0.2       0.1
16 H  s               0.0       0.0       0.0       0.0       2.5       1.2
16 H  pz              0.0       0.0       0.0       0.0       0.2       0.1
17 H  s               0.0       0.0       0.3       0.2       0.2       2.1
17 H  py              0.0       0.0       0.0       0.0       0.0       0.1
18 H  s               0.0       0.0       0.3       0.2       0.2       2.2
18 H  pz              0.0       0.0       0.0       0.0       0.0       0.1
19 H  s               0.0       0.0       0.4       0.1       0.2       1.8
19 H  py              0.0       0.0       0.0       0.0       0.0       0.1

                     12        13        14        15        16        17   
                  -0.68494  -0.62211  -0.55026  -0.52559  -0.47341  -0.45910
                   2.00000   2.00000   2.00000   2.00000   2.00000   2.00000
                  --------  --------  --------  --------  --------  --------
 0 C  s              11.5      13.9       4.1       0.6       0.0       0.1
 0 C  pz              0.0       0.4       0.2       0.1       0.4       0.2
 0 C  px              0.1       0.3       0.1       0.1       1.9       0.3
 0 C  py              0.1       1.6       6.3       1.6       0.1       0.4
 1 C  s               2.8       3.2      10.7       1.7       0.2       0.2
 1 C  pz              0.5       2.2       0.2       1.5       1.2       0.1
 1 C  px              2.9       3.2       1.9       0.6       3.1       0.2
 1 C  py              1.3       4.3       4.5       0.9       0.4       0.2
 1 C  dx2y2           0.1       0.2       0.0       0.0       0.0       0.0
 2 C  s               4.8       9.8       5.2       3.6       0.0       0.2
 2 C  pz              0.1       1.2       1.6       5.3       4.7       0.1
 2 C  px              3.0       2.6       3.6       0.0       0.3       0.1
 2 C  py              0.0       0.9       0.5       0.0       1.6       4.3
 3 C  s               7.1       6.0       0.0       3.0       1.2       0.1
 3 C  pz              0.3       1.6       2.0       5.1       6.5       1.1
 3 C  px              1.0       2.5       3.5       0.4      12.2       0.0
 3 C  py              0.3       0.4       0.0       0.0       1.9      12.4
 3 C  dxz             0.0       0.1       0.1       0.0       0.1       0.0
 3 C  dx2y2           0.0       0.0       0.0       0.1       0.1       0.0
 4 C  s               0.6       0.9       2.1       2.4       1.9       0.2
 4 C  pz              0.3       0.5       1.1       0.4       0.0       6.3
 4 C  px              2.9       3.7       0.2       1.4      12.8       0.4
 4 C  py              1.0       0.0       0.3       2.0       0.3       7.5
 5 O  s               0.0       0.2       0.5       2.0       0.9       1.2
 5 O  pz              0.0       0.1       0.5       0.5       0.5       6.6
 5 O  px              0.1       0.2       0.0       0.2      10.4       0.0
 5 O  py              0.0       0.0       0.3       1.9       0.2       0.3
 5 O  dz2             0.1       0.0       0.0       0.0       0.0       0.5
 5 O  dxz             0.0       0.1       0.0       0.0       0.6       0.0
 5 O  dyz             0.0       0.0       0.1       0.2       0.0       0.1
 5 O  dx2y2           0.3       0.0       0.0       0.0       0.0       0.3
 5 O  dxy             0.0       0.1       0.0       0.0       0.8       0.0
 6 O  s               0.8       1.2       2.2       3.1       0.7       0.1
 6 O  pz              0.1       0.0       0.4       4.1       3.2       7.7
 6 O  px             11.2       0.2       3.5       9.7       0.1       1.8
 6 O  py              1.0       0.1       2.1       6.6       6.6      14.6
 6 O  dz2             0.3       0.4       0.2       0.0       0.1       0.2
 6 O  dxz             0.3       0.0       0.0       0.0       0.5       0.0
 6 O  dyz             0.0       0.0       0.0       0.1       0.2       0.0
 6 O  dx2y2           1.4       1.0       0.4       0.1       0.3       0.3
 6 O  dxy             0.0       0.1       0.1       0.0       0.9       0.0
 7 C  s              16.6       4.3       3.0       3.0       0.0       0.0
 7 C  pz              0.0       0.0       0.7       3.2       2.7       6.8
 7 C  px              0.4       1.2       5.1       8.3       0.1       0.0
 7 C  py              0.1       0.0       0.4       1.5       5.4       8.6
 7 C  dxz             0.0       0.0       0.1       0.1       0.0       0.0
 7 C  dx2y2           0.0       0.0       0.2       0.3       0.0       0.0
 8 H  s               2.2       3.7       2.7       0.8       0.1       0.0
 8 H  pz              0.1       0.2       0.1       0.0       0.0       0.0
 9 H  s               2.1       4.3       2.4       0.2       0.4       0.1
 9 H  pz              0.1       0.2       0.1       0.0       0.0       0.0
 9 H  px              0.1       0.1       0.1       0.0       0.0       0.0
10 H  s               2.4       4.3       1.5       0.3       0.4       0.3
10 H  px              0.2       0.3       0.1       0.0       0.0       0.0
11 H  s               0.6       1.1       5.4       0.6       1.5       0.2
11 H  pz              0.0       0.0       0.2       0.0       0.0       0.0
11 H  px              0.0       0.1       0.1       0.0       0.0       0.0
12 H  s               0.5       0.8       5.9       2.0       0.0       0.0
12 H  pz              0.0       0.1       0.3       0.1       0.0       0.0
12 H  py              0.0       0.0       0.1       0.0       0.0       0.0
13 H  s               1.1       2.9       1.9       1.8       1.1       1.5
13 H  py              0.1       0.2       0.1       0.1       0.0       0.0
14 H  s               0.9       2.5       3.3       3.5       0.2       0.3
14 H  pz              0.1       0.1       0.1       0.1       0.0       0.0
14 H  py              0.0       0.1       0.1       0.1       0.0       0.0
15 H  s               1.0       2.2       0.0       1.6       3.5       4.0
15 H  py              0.1       0.2       0.0       0.1       0.2       0.1
16 H  s               1.5       2.1       0.3       3.7       2.6       1.9
16 H  pz              0.1       0.1       0.0       0.1       0.0       0.1
16 H  py              0.0       0.1       0.0       0.1       0.1       0.0
17 H  s               4.1       1.5       1.6       1.8       0.5       4.9
17 H  py              0.2       0.1       0.1       0.1       0.0       0.1
18 H  s               4.2       1.6       1.5       1.1       0.8       1.8
18 H  pz              0.3       0.1       0.1       0.1       0.0       0.0
19 H  s               3.3       1.2       2.5       4.9       2.6       0.2
19 H  py              0.2       0.1       0.1       0.2       0.0       0.0

                     18        19        20        21        22        23   
                  -0.44398  -0.42737  -0.41300  -0.40184  -0.37318  -0.36339
                   2.00000   2.00000   2.00000   2.00000   2.00000   2.00000
                  --------  --------  --------  --------  --------  --------
 0 C  s               0.0       0.2       0.0       0.0       0.1       0.0
 0 C  pz              1.7       7.4       7.5       4.8       0.1       6.3
 0 C  px              0.3       0.3       8.9       7.8      13.7       2.4
 0 C  py              0.1       0.5       0.5       2.6       0.5       9.0
 1 C  s               0.0       0.3       0.1       0.0       0.4       0.0
 1 C  pz              3.2       5.8      12.4       3.1       1.1       1.2
 1 C  px              0.0       1.7       4.8       5.8       0.6       1.7
 1 C  py              0.8       2.9       0.4       2.7       3.9       1.2
 2 C  s               0.0       0.3       0.1       0.0       0.1       0.2
 2 C  pz              1.8       1.0       2.2       0.9       0.0       4.5
 2 C  px              1.7       0.7       0.0       6.8       0.1       0.3
 2 C  py              1.9      12.4       2.6       0.0       1.3       6.6
 3 C  s               0.1       0.3       0.6       0.3       0.2       0.0
 3 C  pz              0.8       0.5       4.2       6.1       3.4       0.1
 3 C  px              0.3       0.1       0.7       0.0       5.1       0.0
 3 C  py              4.9       5.5       1.8       3.2       2.1       0.2
 3 C  dx2y2           0.0       0.0       0.0       0.0       0.2       0.0
 4 C  s               1.1       0.6       0.6       0.3       0.2       0.0
 4 C  pz              3.6       0.9       1.0       1.3       2.9       5.0
 4 C  px              0.1       0.1       0.0       0.8       7.2       1.1
 4 C  py              0.4       1.4       0.4       2.0       0.7       4.3
 4 C  dyz             0.2       0.0       0.0       0.0       0.0       0.0
 4 C  dx2y2           0.1       0.1       0.0       0.1       0.0       0.0
 4 C  dxy             0.0       0.1       0.0       0.0       0.0       0.1
 5 O  s               8.0       3.7       1.1       0.8       1.1       0.0
 5 O  pz              4.5       5.2       1.2       6.5       1.2       9.4
 5 O  px              1.3       0.3       1.3       0.2       0.7       0.8
 5 O  py             12.1       6.1       3.8       0.5      10.4       3.7
 5 O  dz2             0.1       0.0       0.0       0.3       0.0       0.5
 5 O  dxz             0.0       0.0       0.0       0.1       0.1       0.0
 5 O  dyz             0.2       0.1       0.0       0.0       0.1       0.0
 5 O  dx2y2           0.0       0.0       0.1       0.1       0.3       0.0
 5 O  dxy             0.0       0.0       0.1       0.0       0.0       0.0
 6 O  s               0.8       0.6       0.0       0.0       0.1       0.0
 6 O  pz             16.2       0.0       1.8       0.0       0.2       1.5
 6 O  px              5.3       7.7       0.4       0.7       0.7       0.0
 6 O  py              0.0       2.9       0.0       0.8       0.1       1.1
 6 O  dz2             0.3       0.0       0.0       0.0       0.0       0.1
 6 O  dxz             0.1       0.2       1.1       0.1       0.6       0.9
 6 O  dyz             0.1       0.1       0.0       0.1       0.0       0.1
 6 O  dx2y2           0.2       0.0       0.0       0.2       0.0       0.4
 6 O  dxy             0.1       0.1       0.0       1.4       0.0       0.6
 7 C  s               0.3       0.2       0.0       0.0       0.0       0.0
 7 C  pz              7.8       1.7       8.6       0.5       8.1       3.2
 7 C  px              6.4       2.8       2.0       0.5       2.4       0.0
 7 C  py              0.2       3.7       0.2      13.4       4.7       5.9
 7 C  dz2             0.1       0.0       0.1       0.0       0.0       0.0
 7 C  dxz             0.0       0.0       0.0       0.0       0.1       0.1
 7 C  dyz             0.0       0.0       0.0       0.1       0.1       0.1
 8 H  s               0.3       0.5       2.5       3.0       0.0       7.6
 8 H  pz              0.0       0.0       0.0       0.0       0.0       0.1
 8 H  px              0.0       0.0       0.1       0.0       0.1       0.0
 9 H  s               0.2       1.9       3.7       0.1       0.8       0.0
10 H  s               0.3       1.0       1.7       4.7       6.3       2.9
10 H  px              0.0       0.1       0.0       0.1       0.1       0.1
11 H  s               0.2       1.8       5.2       0.3       1.0       0.1
12 H  s               1.1       2.0       2.4       2.1       0.0       0.0
12 H  py              0.0       0.0       0.1       0.0       0.0       0.0
13 H  s               0.2       4.5       1.3       0.4       0.8       0.5
14 H  s               1.3       1.8       0.0       0.2       0.0       6.5
14 H  pz              0.0       0.1       0.0       0.0       0.0       0.1
15 H  s               1.8       2.1       0.0       0.9       3.0       0.1
16 H  s               0.2       0.7       4.0       2.8       0.9       0.0
17 H  s               0.2       3.5       0.2       6.2       0.2       5.1
18 H  s               6.2       0.0       4.9       0.1       5.3       2.1
18 H  pz              0.1       0.0       0.1       0.0       0.1       0.0
19 H  s               0.0       0.0       1.3       2.6       5.0       0.5
19 H  py              0.0       0.0       0.0       0.0       0.1       0.0

                     24        25        26        27        28        29   
                  -0.35819  -0.33060  -0.31936  -0.30124  -0.29925  -0.29587
                   2.00000   2.00000   2.00000   2.00000   2.00000   2.00000
                  --------  --------  --------  --------  --------  --------
 0 C  s               0.1       0.1       0.0       0.1       0.2       0.4
 0 C  pz             11.3       5.2       0.1       5.6       0.4       5.5
 0 C  px              3.4       1.8       3.0       0.3      11.6       0.2
 0 C  py              8.1       7.3       0.8       2.2       2.3       8.5
 0 C  dxz             0.1       0.0       0.0       0.0       0.1       0.1
 0 C  dyz             0.0       0.3       0.0       0.4       0.1       0.1
 0 C  dx2y2           0.0       0.0       0.1       0.1       0.3       0.0
 0 C  dxy             0.1       0.0       0.0       0.0       0.0       0.1
 1 C  s               0.1       0.0       0.0       0.3       0.1       0.1
 1 C  pz              1.7       0.8       0.2      15.2       0.1       5.9
 1 C  px              0.6       0.7       1.9       1.3      18.0       2.6
 1 C  py              8.0       6.8       0.7       4.0       1.8       8.2
 1 C  dz2             0.1       0.0       0.0       0.1       0.0       0.0
 1 C  dxz             0.0       0.0       0.1       0.0       0.2       0.3
 1 C  dyz             0.0       0.2       0.0       0.6       0.2       0.0
 1 C  dx2y2           0.0       0.0       0.1       0.3       0.2       0.1
 1 C  dxy             0.0       0.0       0.0       0.0       0.0       0.5
 2 C  s               0.2       0.1       0.2       0.4       0.2       0.0
 2 C  pz              8.0       6.8       0.3      12.3       0.4       1.7
 2 C  px              4.6       0.9       2.3       1.8      16.3       1.5
 2 C  py              3.5       0.1       0.0       2.8       5.4      12.7
 2 C  dz2             0.0       0.0       0.0       0.2       0.0       0.0
 2 C  dxz             0.1       0.0       0.0       0.0       0.1       0.3
 2 C  dyz             0.0       0.1       0.0       0.3       0.3       0.1
 2 C  dx2y2           0.1       0.0       0.0       0.2       0.2       0.2
 2 C  dxy             0.0       0.1       0.0       0.0       0.0       0.2
 3 C  s               0.2       0.1       0.2       0.3       0.1       0.2
 3 C  pz              3.5       9.4       1.4       3.7       0.1       2.1
 3 C  px              5.0       1.3       0.5       0.2       3.8       3.3
 3 C  py              9.3       5.8       0.0       0.6       0.2       6.9
 3 C  dz2             0.0       0.2       0.0       0.2       0.0       0.1
 3 C  dxz             0.1       0.1       0.0       0.0       0.0       0.1
 3 C  dyz             0.0       0.2       0.0       0.1       0.1       0.1
 3 C  dx2y2           0.1       0.0       0.0       0.0       0.2       0.1
 4 C  s               0.1       0.0       0.1       0.1       0.5       0.1
 4 C  pz              0.3       1.5       2.1       0.2       0.3       0.1
 4 C  px              0.3       0.1       0.2       0.2       2.1       0.0
 4 C  py              0.5       1.8       2.0       0.1       0.4       0.0
 4 C  dz2             0.0       0.1       0.2       0.1       0.0       0.0
 4 C  dxz             0.1       0.1       0.0       0.0       0.0       0.0
 4 C  dyz             0.0       0.0       0.2       0.0       0.1       0.0
 4 C  dx2y2           0.0       0.0       0.5       0.0       0.0       0.0
 4 C  dxy             0.1       0.1       0.0       0.0       0.0       0.1
 5 O  s               0.1       0.0       0.9       0.1       0.3       0.0
 5 O  pz              1.4       7.8       2.3       0.2       1.7       0.1
 5 O  px              0.1       0.1       2.2       0.0       0.1       0.1
 5 O  py              0.0       3.5       4.8       1.8       0.6       0.1
 5 O  dyz             0.0       0.0       0.2       0.0       0.0       0.0
 5 O  dx2y2           0.0       0.1       0.1       0.0       0.3       0.0
 6 O  s               0.1       0.1       3.2       0.1       0.6       0.5
 6 O  pz              0.1       3.8      11.1       0.5       2.4       0.6
 6 O  px              1.4       0.0       4.2       0.2       1.2       0.9
 6 O  py              0.0       0.4      18.0       0.6       0.4       0.4
 6 O  dz2             0.1       0.1       0.2       0.1       0.1       0.1
 6 O  dxz             0.2       0.2       0.2       0.0       0.1       0.0
 6 O  dyz             0.0       0.0       0.2       0.0       0.0       0.0
 6 O  dx2y2           0.1       0.1       0.2       0.0       0.3       0.2
 6 O  dxy             0.0       0.0       0.9       0.0       0.2       0.0
 7 C  s               0.0       0.0       0.2       0.0       0.1       0.0
 7 C  pz              0.6       2.3       4.6       0.1       0.4       0.1
 7 C  px              1.1       0.0       1.2       0.1       0.8       0.5
 7 C  py              0.2       0.3       8.6       0.1       0.0       0.1
 7 C  dxz             0.0       0.1       0.1       0.0       0.0       0.0
 7 C  dyz             0.0       0.0       0.3       0.0       0.0       0.0
 7 C  dx2y2           0.0       0.0       0.1       0.0       0.0       0.0
 7 C  dxy             0.0       0.0       0.3       0.0       0.0       0.0
 8 H  s               0.2       6.5       0.6       6.8       0.0       0.1
 8 H  py              0.1       0.0       0.0       0.0       0.0       0.1
 9 H  s              11.5       1.5       0.7       1.0       1.4       5.6
 9 H  py              0.0       0.1       0.0       0.0       0.0       0.0
10 H  s               0.4       0.1       2.3       1.6       7.1       0.1
10 H  pz              0.1       0.0       0.0       0.0       0.0       0.1
11 H  s               1.2       0.0       0.7       1.7       3.4      11.1
12 H  s               0.2       3.1       0.5      14.7       1.0       0.0
12 H  px              0.0       0.0       0.0       0.0       0.2       0.0
12 H  py              0.0       0.0       0.0       0.0       0.0       0.1
13 H  s               2.1       0.0       0.1       0.1       6.6       9.6
13 H  pz              0.0       0.1       0.0       0.1       0.0       0.0
13 H  px              0.1       0.0       0.0       0.0       0.1       0.1
14 H  s               0.3       2.6       0.0      11.2       1.3       1.0
14 H  px              0.0       0.0       0.0       0.0       0.2       0.0
15 H  s               5.9       2.1       0.0       0.2       1.0       4.5
15 H  pz              0.0       0.1       0.0       0.0       0.0       0.0
16 H  s               0.2       9.2       0.2       3.6       0.1       0.6
17 H  s               0.0       1.2       1.1       0.0       0.1       0.0
17 H  pz              0.0       0.0       0.1       0.0       0.0       0.0
18 H  s               0.9       1.5       1.2       0.0       0.1       0.0
19 H  s               0.2       0.1      10.2       0.2       0.3       0.2
19 H  py              0.0       0.0       0.1       0.0       0.0       0.0

                     30        31        32        33        34        35   
                  -0.27255  -0.23960  -0.01417   0.06941   0.08927   0.09998
                   2.00000   2.00000   0.00000   0.00000   0.00000   0.00000
                  --------  --------  --------  --------  --------  --------
 0 C  s               0.0       0.1       0.0       1.3       8.7       7.3
 0 C  pz              0.0       0.0       0.0       0.1       0.4       0.0
 0 C  px              0.0       0.1       0.1       0.1       0.4       0.7
 0 C  py              0.0       0.0       0.0       0.1       1.2       1.7
 0 C  dyz             0.0       0.0       0.0       0.0       0.0       0.1
 0 C  dx2y2           0.0       0.0       0.0       0.1       0.5       0.1
 1 C  s               0.0       0.0       0.0       0.5       5.7       9.6
 1 C  pz              0.1       0.0       0.1       0.0       0.1       0.2
 1 C  px              0.1       0.1       0.4       0.1       0.8       1.9
 1 C  py              0.0       0.1       0.1       0.2       1.0       0.8
 1 C  dxz             0.0       0.0       0.0       0.1       0.1       0.1
 2 C  s               0.0       0.1       0.6       1.0       7.5       0.3
 2 C  pz              0.1       0.0       0.3       1.2       0.6       0.7
 2 C  px              0.1       0.1       0.3       1.0       0.7       4.3
 2 C  py              0.0       0.3       0.3       0.2       0.0       0.0
 2 C  dz2             0.0       0.0       0.0       0.0       0.0       0.1
 2 C  dxz             0.0       0.0       0.0       0.1       0.0       0.2
 2 C  dx2y2           0.0       0.0       0.0       0.1       0.1       0.3
 3 C  s               0.0       0.5       0.2       8.3       5.7       0.4
 3 C  pz              0.0       1.9       0.0       0.6       1.6       0.5
 3 C  px              0.0       4.8       0.1       1.3       1.4       7.9
 3 C  py              0.0       0.5       0.1       0.3       0.4       0.0
 3 C  dz2             0.0       0.0       0.5       0.0       0.2       0.2
 3 C  dxz             0.0       0.0       0.8       0.0       0.4       0.1
 3 C  dyz             0.0       0.0       0.4       0.0       0.0       0.0
 3 C  dx2y2           0.0       0.0       0.0       0.0       0.2       0.5
 3 C  dxy             0.0       0.0       0.4       0.0       0.3       0.0
 4 C  s               0.0       0.3       0.1       6.8       2.5       3.8
 4 C  pz              0.3       0.3      22.4       0.3       0.5       0.3
[...]
 1 C  dx2y2           0.2       0.0       0.0       0.0       0.0       0.0
 2 C  s               0.2       0.0       0.0       0.0      13.5       0.7
 2 C  pz              0.6       0.0       0.0       0.0       0.0       0.0
 2 C  py              1.3       0.0       0.0       0.0       0.0       0.0
 2 C  dz2             0.2       0.0       0.0       0.0       0.0       0.0
 2 C  dxz             0.6       0.0       0.0       0.0       0.0       0.0
 2 C  dyz             0.8       0.0       0.0       0.0       0.0       0.0
 2 C  dx2y2           1.2       0.0       0.0       0.0       0.0       0.0
 2 C  dxy             0.6       0.0       0.0       0.0       0.0       0.0
 3 C  s               0.0       0.0       0.1       0.0      10.2      26.2
 3 C  px              2.2       0.0       0.1       0.0       0.0       0.0
 3 C  dz2             0.6       0.0       0.0       0.0       0.0       0.0
 3 C  dxz             1.7       0.1       0.1       0.0       0.0       0.0
 3 C  dyz             0.0       0.0       0.1       0.1       0.0       0.0
 3 C  dx2y2           1.1       0.0       0.2       0.0       0.0       0.0
 3 C  dxy             0.3       0.0       0.0       0.0       0.0       0.0
 4 C  s               1.0       0.3       2.6       5.5       0.0       0.0
 4 C  pz              0.3       0.3       1.1       3.4       0.0       0.0
 4 C  px              0.3       0.4       3.4       0.5       0.0       0.0
 4 C  py              0.4       0.6       2.8       4.0       0.0       0.0
 4 C  dz2             1.5       0.1       0.4       0.2       0.0       0.0
 4 C  dxz             3.1       0.6       3.7       0.6       0.0       0.0
 4 C  dyz             1.3       0.2       1.9       4.3       0.0       0.0
 4 C  dx2y2           8.5       0.0       0.1       0.8       0.0       0.0
 4 C  dxy             0.6       0.8       6.8       0.7       0.0       0.0
 5 O  s               2.0       1.1       0.3      18.6       0.0       0.0
 5 O  pz              0.5       0.3       0.1       9.5       0.0       0.0
 5 O  px              8.6       0.1       0.4       1.6       0.0       0.0
 5 O  py              1.6       0.6       0.1      11.0       0.0       0.0
 5 O  dz2             0.1       0.1       0.1       0.8       0.0       0.0
 5 O  dxz             9.1       0.0       0.9       3.0       0.0       0.0
 5 O  dyz             1.8       1.2       0.0      21.9       0.0       0.0
 5 O  dx2y2           1.4       0.7       0.9       5.0       0.0       0.0
 5 O  dxy            12.7       0.0       0.4       3.6       0.0       0.0
 6 O  s               4.1      22.7       6.8       0.8       0.0       0.0
 6 O  pz              3.4       2.4       1.8       0.1       0.0       0.0
 6 O  px              0.2      10.8      21.3       0.6       0.0       0.0
 6 O  py              4.1       1.2       6.9       0.1       0.0       0.0
 6 O  dz2             0.5       7.0       0.4       0.4       0.0       0.0
 6 O  dxz             0.1       1.0       9.0       0.3       0.0       0.0
 6 O  dyz             5.7       1.1       4.6       0.1       0.0       0.0
 6 O  dx2y2           2.6      17.5       1.2       1.3       0.0       0.0
 6 O  dxy             0.6       1.1      15.1       0.0       0.0       0.0
 7 C  s               0.1       1.7       0.5       0.2       4.8      40.6
 7 C  pz              0.1       0.3       0.2       0.0       0.0       0.0
 7 C  px              0.0       7.8       1.5       0.3       0.0       0.0
 7 C  dz2             0.0       2.5       0.4       0.1       0.0       0.0
 7 C  dxz             0.9       2.5       0.2       0.1       0.0       0.0
 7 C  dyz             0.5       0.2       0.1       0.0       0.0       0.0
 7 C  dx2y2           0.1       8.7       1.9       0.3       0.0       0.0
 7 C  dxy             1.1       0.3       0.0       0.0       0.0       0.0
11 H  px              0.1       0.0       0.0       0.0       0.0       0.0
13 H  s               1.4       0.0       0.0       0.0       0.0       0.0
13 H  pz              0.2       0.0       0.0       0.0       0.0       0.0
13 H  px              0.3       0.0       0.1       0.0       0.0       0.0
13 H  py              3.0       0.0       0.0       0.0       0.0       0.0
14 H  pz              0.2       0.0       0.0       0.0       0.0       0.0
15 H  py              0.1       0.0       0.0       0.0       0.0       0.0
16 H  s               0.1       0.0       0.0       0.0       0.0       0.0
16 H  pz              0.2       0.0       0.0       0.0       0.0       0.0
17 H  s               0.0       0.4       0.0       0.0       0.0       0.0
17 H  pz              0.1       0.2       0.0       0.0       0.0       0.0
17 H  px              0.0       0.2       0.0       0.0       0.0       0.0
17 H  py              0.0       0.8       0.0       0.0       0.0       0.0
18 H  s               0.1       0.4       0.0       0.0       0.0       0.0
18 H  pz              0.3       1.1       0.1       0.0       0.0       0.0
19 H  s               0.2       0.1       0.2       0.0       0.0       0.0
19 H  pz              0.1       0.0       0.1       0.0       0.0       0.0
19 H  px              1.1       0.1       0.0       0.0       0.0       0.0
19 H  py              0.6       0.2       0.2       0.0       0.0       0.0

                    216       217       218       219       220       221   
                  21.99606  22.02640  22.04189  22.24914  43.63653  43.71966
                   0.00000   0.00000   0.00000   0.00000   0.00000   0.00000
                  --------  --------  --------  --------  --------  --------
 0 C  s               4.1       4.9       0.6       0.1       0.0       0.0
 1 C  s               5.0      36.2      44.8       0.3       0.0       0.0
 2 C  s              13.5      54.2      17.8       0.0       0.0       0.0
 3 C  s              24.5       1.6      34.8       2.2       0.0       0.0
 4 C  s               1.5       0.0       1.6      95.8       0.0       0.0
 5 O  s               0.0       0.0       0.0       0.2      64.5      35.4
 6 O  s               0.1       0.0       0.0       0.1      35.4      64.5
 7 C  s              50.8       2.8       0.0       0.6       0.0       0.0



                      *****************************
                      * MAYER POPULATION ANALYSIS *
                      *****************************

  NA   - Mulliken gross atomic population
  ZA   - Total nuclear charge
  QA   - Mulliken gross atomic charge
  VA   - Mayer's total valence
  BVA  - Mayer's bonded valence
  FA   - Mayer's free valence

  ATOM       NA         ZA         QA         VA         BVA        FA
  0 C      6.4895     6.0000    -0.4895     3.7991     3.7991     0.0000
  1 C      6.2264     6.0000    -0.2264     3.5992     3.5992     0.0000
  2 C      6.2570     6.0000    -0.2570     3.6338     3.6338     0.0000
  3 C      6.3465     6.0000    -0.3465     3.8523     3.8523     0.0000
  4 C      5.5996     6.0000     0.4004     3.8564     3.8564     0.0000
  5 O      8.4402     8.0000    -0.4402     1.9517     1.9517     0.0000
  6 O      8.1951     8.0000    -0.1951     1.9520     1.9520    -0.0000
  7 C      6.3078     6.0000    -0.3078     3.7450     3.7450     0.0000
  8 H      0.8541     1.0000     0.1459     0.9642     0.9642     0.0000
  9 H      0.8521     1.0000     0.1479     0.9623     0.9623     0.0000
 10 H      0.8524     1.0000     0.1476     0.9621     0.9621     0.0000
 11 H      0.8538     1.0000     0.1462     0.9598     0.9598     0.0000
 12 H      0.8656     1.0000     0.1344     0.9665     0.9665     0.0000
 13 H      0.8264     1.0000     0.1736     0.9560     0.9560     0.0000
 14 H      0.8599     1.0000     0.1401     0.9658     0.9658     0.0000
 15 H      0.8306     1.0000     0.1694     0.9588     0.9588     0.0000
 16 H      0.8283     1.0000     0.1717     0.9564     0.9564    -0.0000
 17 H      0.8518     1.0000     0.1482     0.9575     0.9575     0.0000
 18 H      0.8527     1.0000     0.1473     0.9577     0.9577     0.0000
 19 H      0.8102     1.0000     0.1898     0.9577     0.9577     0.0000

  Mayer bond orders larger than 0.100000
B(  0-C ,  1-C ) :   0.8829 B(  0-C ,  8-H ) :   0.9816 B(  0-C ,  9-H ) :   0.9822 
B(  0-C , 10-H ) :   0.9692 B(  1-C ,  2-C ) :   0.8810 B(  1-C , 11-H ) :   0.9736 
B(  1-C , 12-H ) :   0.9908 B(  2-C ,  3-C ) :   0.9289 B(  2-C , 13-H ) :   0.9633 
B(  2-C , 14-H ) :   0.9702 B(  3-C ,  4-C ) :   1.0105 B(  3-C , 15-H ) :   0.9575 
B(  3-C , 16-H ) :   0.9427 B(  4-C ,  5-O ) :   1.8357 B(  4-C ,  6-O ) :   1.0705 
B(  6-O ,  7-C ) :   0.8381 B(  7-C , 17-H ) :   0.9635 B(  7-C , 18-H ) :   0.9657 
B(  7-C , 19-H ) :   0.9691 

-------
TIMINGS
-------

Total SCF time: 0 days 0 hours 0 min 22 sec 

Total time                  ....      22.681 sec
Sum of individual times     ....      22.237 sec  ( 98.0%)

SCF preparation             ....       0.185 sec  (  0.8%)
Fock matrix formation       ....      21.153 sec  ( 93.3%)
  Startup                   ....       0.045 sec  (  0.2% of F)
  Split-RI-J                ....       4.102 sec  ( 19.4% of F)
  XC integration            ....      16.473 sec  ( 77.9% of F)
    Basis function eval.    ....       3.070 sec  ( 18.6% of XC)
    Density eval.           ....       4.950 sec  ( 30.1% of XC)
    XC-Functional eval.     ....       2.229 sec  ( 13.5% of XC)
    XC-Potential eval.      ....       5.262 sec  ( 31.9% of XC)
Diagonalization             ....       0.000 sec  (  0.0%)
Density matrix formation    ....       0.233 sec  (  1.0%)
Total Energy calculation    ....       0.028 sec  (  0.1%)
Population analysis         ....       0.130 sec  (  0.6%)
Orbital Transformation      ....       0.059 sec  (  0.3%)
Orbital Orthonormalization  ....       0.000 sec  (  0.0%)
DIIS solution               ....       0.413 sec  (  1.8%)
  MO trafo                  ....       0.000 sec  (  0.0 % of DIIS)
  Orb grad                  ....       0.000 sec  (  0.0 % of DIIS)
  Energy W gradient         ....       0.000 sec  (  0.0 % of DIIS)
  DIIS error                ....       0.014 sec  (  3.4 % of DIIS)
  DIIS work                 ....       0.348 sec  ( 84.5 % of DIIS)
  Form Q                    ....       0.000 sec  (  0.0 % of DIIS)
  Form QpQm                 ....       0.000 sec  (  0.0 % of DIIS)
  Exp/Cayley                ....       0.000 sec  (  0.0 % of DIIS)
  Orb update                ....       0.000 sec  (  0.0 % of DIIS)
  Wake-sleep                ....       0.019 sec  (  4.7 % of DIIS)
SOSCF solution              ....       0.037 sec  (  0.2%)
  MO trafo                  ....       0.037 sec  ( 99.8 % of SOSCF)
  Orb grad                  ....       0.000 sec  (  0.0 % of SOSCF)
  Rot update                ....       0.000 sec  (  0.0 % of SOSCF)
  Step                      ....       0.000 sec  (  0.0 % of SOSCF)
Finished LeanSCF after  22.8 sec

Maximum memory used throughout the entire LEANSCF-calculation: 23.2 MB


-------------------------------------------------------------------------------
                          DFT DISPERSION CORRECTION                            
                                                                               
                                DFTD4 V3.4.0                                   
-------------------------------------------------------------------------------
The R2SCAN3C composite method is recognized
Using three-body term ABC
Active option DFTDOPT                   ...         5   

-------------------------   ----------------
Dispersion correction           -0.004979936
-------------------------   ----------------

------------------   -----------------
gCP correction             0.012181169
------------------   -----------------

-------------------------   --------------------
FINAL SINGLE POINT ENERGY      -386.228899328739
-------------------------   --------------------


------------------------------------------------------------------------------
                              ORCA PROPERTY CALCULATIONS
------------------------------------------------------------------------------

GBWName                                 ... sp_gas.gbw
Number of atoms                         ...     20
Number of basis functions               ...    222
Max core memory                         ...   1024 MB

Electric properties:
Dipole moment                           ... YES
Quadrupole moment                       ...  NO
Static polarizability (Dipole/Dipole)   ...  NO
Static polarizability (Dipole/Quad.)    ...  NO
Static polarizability (Quad./Quad.)     ...  NO
Static polarizability (Velocity)        ...  NO

Atomic electric properties:
Dipole moment                           ...  NO
Quadrupole moment                       ...  NO
Static polarizability                   ...  NO

Choice of electric origin               ... Center of mass
Position of electric origin             ...    -0.000036    -0.000007     0.000005

General magnetic properties:
Magnetizability                         ...  NO

EPR properties:
g-Tensor (aka g-matrix)                 ...  NO
Zero-Field splitting spin-orbit         ...  NO
Zero-field splitting spin-spin          ...  NO
Hyperfine couplings                     ...  NO (   0 nuclei)
Quadrupole couplings                    ...  NO (   0 nuclei)
Contact density                         ...  NO (   0 nuclei)

NMR properties:
Chemical shifts                         ...  NO (   0 nuclei)
Spin-rotation constants                 ...  NO (   0 nuclei)
Spin-spin couplings                     ...  NO (   0 nuclei,    0 pairs)

Choice of magnetic origin               ... GIAO
Position of magnetic origin             ...     0.000000     0.000000     0.000000

Properties with geometric perturbations:
SCF Hessian                             ...  NO
IR spectrum                             ...  NO
VCD spectrum                            ...  NO
X-ray spectroscopy properties:
SCF XES/XAS/RIXS spectra                ...  NO


-------------
DIPOLE MOMENT
-------------

Method             : SCF
Type of density    : Electron Density
Multiplicity       :   1
Irrep              :   0
Energy             :  -386.2361005618316199 Eh
Relativity type    : 
Basis              : AO
                                X                 Y                 Z
Electronic contribution:      8.678625620       1.944762751      -1.124505542
Nuclear contribution   :     -8.649451895      -2.468426615       1.587857611
                        -----------------------------------------
Total Dipole Moment    :      0.029173725      -0.523663864       0.463352069
                        -----------------------------------------
Magnitude (a.u.)       :      0.699835758
Magnitude (Debye)      :      1.778841131



--------------------
Rotational spectrum 
--------------------
 
Rotational constants in cm-1:             0.183836             0.028087             0.025319 
Rotational constants in MHz :          5511.250577           842.018800           759.054200 

Dipole components along the rotational axes: 
x,y,z [a.u.] :     0.018938    -0.695665     0.073908 
x,y,z [Debye]:     0.048137    -1.768239     0.187858 

 

Dipole moment calculation done in   0.0 sec 

Maximum memory used throughout the entire PROP-calculation: 13.5 MB

--------------------------------
SUGGESTED CITATIONS FOR THIS RUN
--------------------------------

Below you find a list of papers that are relevant to this ORCA run
We neither can nor want to force you to cite these papers, but we appreciate if you do
You receive ORCA, which is the product of decades of hard work by many enthusiastic individuals, for free
The only thing we kindly ask in return is that you cite our papers,
We deeply appreciate it, if you show your appreciation for ORCA by not just citing the generic ORCA reference.

Please note that relegating all ORCA citations to the supporting information does *not* help us.
SI sections are not indexed - citations you put there will not count into any citation statistics
But we need these citations in order to attract the funding resources that allow us to do what we are doing

Therefore, if you are a happy ORCA user, please consider citing a few of the papers listed below in the main body of your paper

In addition to the list printed below, the program has created the file sp_gas.bibtex that contains the list in bibtex format
You can import this file easily into all common literature databanks and citation aid programs


List of essential papers. We consider these as the minimum necessary citations

  1. Neese,F.
     Software update: the ORCA program system, version 5.0
     WIRES Comput. Molec. Sci., 2022 12(1)e1606
     doi.org/10.1002/wcms.1606
  2. Grimme,S.; Hansen,A.; Ehlert,S.; Mewes,J.
     r2SCAN-3c: A 'Swiss army knife' composite electronic-structure method
     J. Chem. Phys., 2021 154 064103
     doi.org/10.1063/5.0040021

List of papers to cite with high priority. The work reported in these papers was absolutely
necessary for this run to complete.
Our perspective: the developers of density functionals and basis sets usually get cited in chemistry papers
Good! But without the algorithms to do something with them, the functionals or basis sets would not do anything.
Hence, in our opinion, the algorithm design and method developments papers are equally worthy of getting cited

  1. Neese,F.
     An improvement of the resolution of the identity approximation for the formation of the Coulomb matrix
     J. Comp. Chem., 2003 24(14)1740-1747
     doi.org/10.1002/jcc.10318
  2. Neese,F.
     The SHARK Integral Generation and Digestion System
     J. Comp. Chem., 2022  1-16
     doi.org/10.1002/jcc.26942
  3. Lehtola,S.; Steigemann,C.; Oliveira,M.; Marques,M.
     Recent developments in Libxc - A comprehensive library of functionals for density functional theory
     Software X, 2018 7 
     doi.org/10.1016/j.softx.2017.11.002
  4. Caldeweyher,E.; Bannwarth,C.; Grimme,S.
     Extension of the D3 dispersion coefficient model
     J. Chem. Phys., 2017 147 034112-XXXX
     doi.org/10.1063/1.4993215
  5. Caldeweyher,E.; Ehlert,S.; Hansen,A.; Neugebauer,H.; Spicher,S.; Bannwarth,C.; Grimme,S.
     A generally applicable atomic-charge dependent London dispersion correction
     J. Chem. Phys., 2019 150 154122-XXXX
     doi.org/10.1063/1.5090222
  6. Caldeweyher,E.; Mewes,J.; Ehlert,S.; Grimme,S.
     Extension and evaluation of the D4 London-dispersion model for periodic systems
     Phys. Chem. Chem. Phys., 2020 22(16)8499-8512
     doi.org/10.1039/D0CP00502A

List of suggested additional citations. These are papers that are important in the 'surrounding' of 
of this run, or papers that preceded the highly important papers. If you like your results we are grateful for a citation.

  1. Neese,F.
     The ORCA program system
     WIRES Comput. Molec. Sci., 2012 2(1)73-78
     doi.org/10.1002/wcms.81
  2. Neese,F.
     Software update: the ORCA program system, version 4.0
     WIRES Comput. Molec. Sci., 2018 8(1)1-6
     doi.org/10.1002/wcms.1327
  3. Neese,F.; Wennmohs,F.; Becker,U.; Riplinger,C.
     The ORCA quantum chemistry program package
     J. Chem. Phys., 2020 152 Art. No. L224108
     doi.org/10.1063/5.0004608

List of optional additional citations

  1. Neese,F.
     Approximate second-order SCF convergence for spin unrestricted wavefunctions
     Chem. Phys. Lett., 2000 325(1-3)93-98
     doi.org/10.1016/s0009-2614(00)00662-x

Timings for individual modules:

Sum of individual times          ...       24.491 sec (=   0.408 min)
Startup calculation              ...        1.238 sec (=   0.021 min)   5.1 %
SCF iterations                   ...       23.137 sec (=   0.386 min)  94.5 %
Property calculations            ...        0.116 sec (=   0.002 min)   0.5 %
                             ****ORCA TERMINATED NORMALLY****
TOTAL RUN TIME: 0 days 0 hours 0 minutes 25 seconds 398 msec
