
                                 *****************
                                 * O   R   C   A *
                                 *****************

                                            #,                                       
                                            ###                                      
                                            ####                                     
                                            #####                                    
                                            ######                                   
                                           ########,                                 
                                     ,,################,,,,,                         
                               ,,#################################,,                 
                          ,,##########################################,,             
                       ,#########################################, ''#####,          
                    ,#############################################,,   '####,        
                  ,##################################################,,,,####,       
                ,###########''''           ''''###############################       
              ,#####''   ,,,,##########,,,,          '''####'''          '####       
            ,##' ,,,,###########################,,,                        '##       
           ' ,,###''''                  '''############,,,                           
         ,,##''                                '''############,,,,        ,,,,,,###''
      ,#''                                            '''#######################'''  
     '                                                          ''''####''''         
             ,#######,   #######,   ,#######,      ##                                
            ,#'     '#,  ##    ##  ,#'     '#,    #''#        ,####,   ,####,        
            ##       ##  ##   ,#'  ##            #'  '#       #'       #'  '#        
            ##       ##  #######   ##           ,######,      #####,   #    #        
            '#,     ,#'  ##    ##  '#,     ,#' ,#      #,     #,   #   #,  ,#        
             '#######'   ##     ##  '#######'  #'      '#     '####' # '####'        



                #########################################################
                #                        -***-                          #
                #          Department of theory and spectroscopy        #
                #                                                       #
                #                      Frank Neese                      #
                #                                                       #
                #     Directorship, Architecture, Infrastructure        #
                #                    SHARK, DRIVERS                     #
                #        Core code/Algorithms in most modules           #
                #                                                       #
                #        Max Planck Institute fuer Kohlenforschung      #
                #                Kaiser Wilhelm Platz 1                 #
                #                 D-45470 Muelheim/Ruhr                 #
                #                      Germany                          #
                #                                                       #
                #                  All rights reserved                  #
                #                        -***-                          #
                #########################################################


                         Program Version 6.0.0  -   RELEASE  -


 With contributions from (in alphabetic order):
   Daniel Aravena         : Magnetic Suceptibility
   Michael Atanasov       : Ab Initio Ligand Field Theory (pilot matlab implementation)
   Alexander A. Auer      : GIAO ZORA, VPT2 properties, NMR spectrum
   Ute Becker             : All parallelization in ORCA, NUMFREQ, NUMCALC
   Giovanni Bistoni       : ED, misc. LED, open-shell LED, HFLD
   Martin Brehm           : Molecular dynamics
   Dmytro Bykov           : pre 5.0 version of the SCF Hessian
   Marcos Casanova-Páez   : Triplet and SCS-CIS(D). UHF-(DLPNO)-IP/EA/STEOM-CCSD. UHF-CVS-IP/STEOM-CCSD
   Vijay G. Chilkuri      : MRCI spin determinant printing, contributions to CSF-ICE
   Pauline Colinet        : FMM embedding
   Dipayan Datta          : RHF DLPNO-CCSD density
   Achintya Kumar Dutta   : EOM-CC, STEOM-CC
   Nicolas Foglia         : Exact transition moments, OPA infrastructure, MCD improvements
   Dmitry Ganyushin       : Spin-Orbit,Spin-Spin,Magnetic field MRCI
   Miquel Garcia          : C-PCM and meta-GGA Hessian, CCSD/C-PCM, Gaussian charge scheme
   Tiago L. C. Gouveia    : GS-ROHF, GS-ROCIS
   Yang Guo               : DLPNO-NEVPT2, F12-NEVPT2, CIM, IAO-localization
   Andreas Hansen         : Spin unrestricted coupled pair/coupled cluster methods
   Ingolf Harden          : AUTO-CI MPn and infrastructure 
   Benjamin Helmich-Paris : MC-RPA, TRAH-(SCF,CASSCF), AVAS, COSX integrals, SCF dyn. polar.
   Lee Huntington         : MR-EOM, pCC
   Robert Izsak           : Overlap fitted RIJCOSX, COSX-SCS-MP3, EOM
   Riya Kayal             : Wick's Theorem for AUTO-CI, AUTO-CI UHF-CCSDT
   Emily Kempfer          : AUTO-CI, RHF CISDT and CCSDT
   Christian Kollmar      : KDIIS, OOCD, Brueckner-CCSD(T), CCSD density, CASPT2, CASPT2-K, improved NEVPT2
   Axel Koslowski         : Symmetry handling
   Simone Kossmann        : Meta GGA functionals, TD-DFT gradient, OOMP2, (MP2 Hessian; deprecated post 5.0)
   Lucas Lang             : DCDCAS
   Marvin Lechner         : AUTO-CI (C++ implementation), FIC-MRCC
   Spencer Leger          : CASSCF response
   Dagmar Lenk            : GEPOL surface, SMD, ORCA-2-JSON
   Dimitrios Liakos       : Extrapolation schemes; Compound Job, initial MDCI parallelization
   Dimitrios Manganas     : Further ROCIS development; embedding schemes. LFT, Crystal Embedding
   Dimitrios Pantazis     : SARC Basis sets
   Anastasios Papadopoulos: AUTO-CI, single reference methods and gradients
   Taras Petrenko         : pre 6.0 DFT Hessian and TD-DFT gradient, (ASA, deprecated), ECA, 1-Electron XAS/XES, NRVS
   Peter Pinski           : DLPNO-MP2, DLPNO-MP2 Gradient
   Christoph Reimann      : Effective Core Potentials
   Marius Retegan         : Local ZFS, SOC
   Christoph Riplinger    : Optimizer, TS searches, QM/MM, DLPNO-CCSD(T), (RO)-DLPNO pert. Triples
   Michael Roemelt        : Original ROCIS implementation
   Masaaki Saitow         : Open-shell DLPNO-CCSD energy and density
   Barbara Sandhoefer     : DKH picture change effects
   Kantharuban Sivalingam : CASSCF convergence/infrastructure, NEVPT2 and variants, FIC-MRCI
   Bernardo de Souza      : ESD, SOC TD-DFT
   Georgi Stoychev        : AutoAux, RI-MP2 NMR, DLPNO-MP2 response, X2C
   Van Anh Tran           : RI-MP2 g-tensors
   Willem Van den Heuvel  : Paramagnetic NMR
   Zikuan Wang            : NOTCH, Electric field optimization 
   Frank Wennmohs         : Technical directorship and infrastructure
   Hang Xu                : AUTO-CI-Response properties 


 We gratefully acknowledge several colleagues who have allowed us to
 interface, adapt or use parts of their codes:
   Stefan Grimme, W. Hujo, H. Kruse, P. Pracht,  : VdW corrections, initial TS optimization,
                  C. Bannwarth, S. Ehlert,         DFT functionals, gCP, sTDA/sTD-DF
                  L. Wittmann, M. Mueller
   Ed Valeev, F. Pavosevic, A. Kumar             : LibInt (2-el integral package), F12 methods
   Garnet Chan, S. Sharma, J. Yang, R. Olivares  : DMRG
   Ulf Ekstrom                                   : XCFun DFT Library
   Mihaly Kallay                                 : mrcc  (arbitrary order and MRCC methods)
   Frank Weinhold                                : gennbo (NPA and NBO analysis)
   Simon Mueller                                 : openCOSMO-RS
   Christopher J. Cramer and Donald G. Truhlar   : smd solvation model
   Lars Goerigk                                  : TD-DFT with DH, B97 family of functionals
   V. Asgeirsson, H. Jonsson                     : NEB implementation
   FAccTs GmbH                                   : IRC, NEB, NEB-TS, DLPNO-Multilevel, CI-OPT
                                                   MM, QMMM, 2- and 3-layer-ONIOM, Crystal-QMMM,
                                                   LR-CPCM, SF, NACMEs, symmetry and pop. for TD-DFT,
                                                   nearIR, NL-DFT gradient (VV10), updates on ESD,
                                                   ML-optimized integration grids, MBIS, APM,
                                                   GOAT, DOCKER, SOLVATOR, interface openCOSMO-RS
   S Lehtola, MJT Oliveira, MAL Marques          : LibXC Library
   Liviu Ungur et al                             : ANISO software


 Your calculation uses the libint2 library for the computation of 2-el integrals
 For citations please refer to: http://libint.valeyev.net

 Your ORCA version has been built with support for libXC version: 6.2.2
 For citations please refer to: https://libxc.gitlab.io

 This ORCA versions uses:
   CBLAS   interface :  Fast vector & matrix operations
   LAPACKE interface :  Fast linear algebra routines
   SCALAPACK package :  Parallel linear algebra routines
   Shared memory     :  Shared parallel matrices
   BLAS/LAPACK       :  OpenBLAS 0.3.27  USE64BITINT DYNAMIC_ARCH NO_AFFINITY SkylakeX SINGLE_THREADED
        Core in use  :  SkylakeX
   Copyright (c) 2011-2014, The OpenBLAS Project


Your calculation utilizes the geometrical counterpoise correction gCP
Please cite in your paper:
H.Kruse, S. Grimme J.Chem.Phys., 136, (2012), 154101 
   

Your calculation utilizes the atom-pairwise dispersion correction
based on EEQ partial charges (D4)


Your calculation utilizes the SMD solvation module
Please cite in your paper:
A.V. Marenich, C.J. Cramer, D.G. Truhlar J. Phys. Chem. B, 113, (2009), 6378 

================================================================================

----- Orbital basis set information -----
Your calculation utilizes the basis: def2-mTZVPP
   Stefan Grimme, Andreas Hansen, Sebastian Ehlert, and Jan-Michael Mewes 
   J. Chem. Phys. 154, 064103 (2021). DOI: 10.1063/5.0040021

----- AuxJ basis set information -----
Your calculation utilizes the auxiliary basis: def2/J
   F. Weigend, Phys. Chem. Chem. Phys. 8, 1057 (2006).

================================================================================
                                        WARNINGS
                       Please study these warnings very carefully!
================================================================================

Using LibXC functional ID 497 : Re-regularized SCAN exchange by Furness et al
[ 1]  J. W. Furness, A. D. Kaplan, J. Ning, J. P. Perdew, and J. Sun.,  J. Phys. Chem. Lett. 11, 8208-8215 (2020)
[ 2]  J. W. Furness, A. D. Kaplan, J. Ning, J. P. Perdew, and J. Sun.,  J. Phys. Chem. Lett. 11, 9248-9248 (2020)
Using LibXC functional ID 498 : Re-regularized SCAN correlation by Furness et al
[ 1]  J. W. Furness, A. D. Kaplan, J. Ning, J. P. Perdew, and J. Sun.,  J. Phys. Chem. Lett. 11, 8208-8215 (2020)
[ 2]  J. W. Furness, A. D. Kaplan, J. Ning, J. P. Perdew, and J. Sun.,  J. Phys. Chem. Lett. 11, 9248-9248 (2020)
Using LibXC functional ID 497 : Re-regularized SCAN exchange by Furness et al
[ 1]  J. W. Furness, A. D. Kaplan, J. Ning, J. P. Perdew, and J. Sun.,  J. Phys. Chem. Lett. 11, 8208-8215 (2020)
[ 2]  J. W. Furness, A. D. Kaplan, J. Ning, J. P. Perdew, and J. Sun.,  J. Phys. Chem. Lett. 11, 9248-9248 (2020)
Using LibXC functional ID 498 : Re-regularized SCAN correlation by Furness et al
[ 1]  J. W. Furness, A. D. Kaplan, J. Ning, J. P. Perdew, and J. Sun.,  J. Phys. Chem. Lett. 11, 8208-8215 (2020)
[ 2]  J. W. Furness, A. D. Kaplan, J. Ning, J. P. Perdew, and J. Sun.,  J. Phys. Chem. Lett. 11, 9248-9248 (2020)

================================================================================
                                       INPUT FILE
================================================================================
NAME = sp_solv.inp
|  1> ! r2scan-3c def2/J RI DEFGRID2 scfconv6 printgap
|  2> %output
|  3>     printlevel normal
|  4> end
|  5> %cpcm
|  6>     smd true
|  7>     smdsolvent "water"
|  8> end
|  9> * xyz 0 1
| 10> C -3.9287087316 0.0873189564 -0.2959187663
| 11> C -2.7001201415 -0.2561856464 0.5376324764
| 12> C -1.4078898736 0.0781509983 -0.203116607
| 13> C -0.1740443503 -0.26004863 0.6284231644
| 14> C 1.1069196005 0.0212962761 -0.1104191994
| 15> O 1.195854587 0.3456201972 -1.2749400053
| 16> O 2.1662860684 -0.1352883756 0.6812943057
| 17> C 3.4573736466 0.085661827 0.1067761676
| 18> H -3.9217912652 -0.4687965657 -1.2304275807
| 19> H -4.8385721842 -0.1589716381 0.2452700247
| 20> H -3.9441293554 1.148851166 -0.5314965817
| 21> H -2.7318441067 0.2999600962 1.476536665
| 22> H -2.7125328584 -1.3207235271 0.779471561
| 23> H -1.3903216751 1.1405469961 -0.4544665715
| 24> H -1.3653156567 -0.4749148964 -1.1435102179
| 25> H -0.1710875685 -1.3194776881 0.8947484595
| 26> H -0.1582644738 0.3075764856 1.5601874319
| 27> H 4.1638738852 -0.0312208176 0.9222255666
| 28> H 3.509714211 1.0883489902 -0.3190051849
| 29> H 3.6441247688 -0.644581178 -0.6813759896
| 30> *
| 31> 
| 32>                          ****END OF INPUT****
================================================================================

                       ****************************
                       * Single Point Calculation *
                       ****************************

---------------------------------
CARTESIAN COORDINATES (ANGSTROEM)
---------------------------------
  C     -3.928709    0.087319   -0.295919
  C     -2.700120   -0.256186    0.537632
  C     -1.407890    0.078151   -0.203117
  C     -0.174044   -0.260049    0.628423
  C      1.106920    0.021296   -0.110419
  O      1.195855    0.345620   -1.274940
  O      2.166286   -0.135288    0.681294
  C      3.457374    0.085662    0.106776
  H     -3.921791   -0.468797   -1.230428
  H     -4.838572   -0.158972    0.245270
  H     -3.944129    1.148851   -0.531497
  H     -2.731844    0.299960    1.476537
  H     -2.712533   -1.320724    0.779472
  H     -1.390322    1.140547   -0.454467
  H     -1.365316   -0.474915   -1.143510
  H     -0.171088   -1.319478    0.894748
  H     -0.158264    0.307576    1.560187
  H      4.163874   -0.031221    0.922226
  H      3.509714    1.088349   -0.319005
  H      3.644125   -0.644581   -0.681376

----------------------------
CARTESIAN COORDINATES (A.U.)
----------------------------
  NO LB      ZA    FRAG     MASS         X           Y           Z
   0 C     6.0000    0    12.011   -7.424184    0.165009   -0.559205
   1 C     6.0000    0    12.011   -5.102488   -0.484121    1.015978
   2 C     6.0000    0    12.011   -2.660526    0.147684   -0.383835
   3 C     6.0000    0    12.011   -0.328896   -0.491421    1.187548
   4 C     6.0000    0    12.011    2.091775    0.040244   -0.208662
   5 O     8.0000    0    15.999    2.259838    0.653128   -2.409287
   6 O     8.0000    0    15.999    4.093687   -0.255658    1.287460
   7 C     6.0000    0    12.011    6.533489    0.161877    0.201778
   8 H     1.0000    0     1.008   -7.411111   -0.885897   -2.325171
   9 H     1.0000    0     1.008   -9.143576   -0.300413    0.463493
  10 H     1.0000    0     1.008   -7.453324    2.171014   -1.004383
  11 H     1.0000    0     1.008   -5.162437    0.566842    2.790250
  12 H     1.0000    0     1.008   -5.125944   -2.495806    1.472988
  13 H     1.0000    0     1.008   -2.627327    2.155321   -0.858817
  14 H     1.0000    0     1.008   -2.580073   -0.897459   -2.160921
  15 H     1.0000    0     1.008   -0.323309   -2.493451    1.690830
  16 H     1.0000    0     1.008   -0.299077    0.581235    2.948327
  17 H     1.0000    0     1.008    7.868581   -0.058999    1.742754
  18 H     1.0000    0     1.008    6.632399    2.056682   -0.602832
  19 H     1.0000    0     1.008    6.886398   -1.218082   -1.287614

--------------------------------
INTERNAL COORDINATES (ANGSTROEM)
--------------------------------
 C      0   0   0     0.000000000000     0.00000000     0.00000000
 C      1   0   0     1.523887466342     0.00000000     0.00000000
 C      2   1   0     1.526548152475   111.57238124     0.00000000
 C      3   2   1     1.525848011884   111.80948030   179.83742970
 C      4   3   2     1.505294535293   112.28463117   178.03193258
 O      5   4   3     1.212107315792   125.73287287   352.68629658
 O      5   4   3     1.331760616859   111.29379298   172.91752387
 C      7   5   4     1.430313678050   117.45689414   179.33127777
 H      1   2   3     1.087482896166   110.46566910    59.74914265
 H      1   2   3     1.086920359005   110.57658741   179.87364820
 H      1   2   3     1.087467394806   110.48512669   300.00049724
 H      2   1   3     1.091716800434   109.40034261   121.05436049
 H      2   1   3     1.091733079936   109.37807668   238.93589390
 H      3   2   1     1.091865697966   109.78114367    58.53992312
 H      3   2   1     1.091803366567   109.87784136   301.00773406
 H      4   3   2     1.092395457019   110.48792051    58.18757331
 H      4   3   2     1.091160816082   111.20786778   299.22427041
 H      8   7   5     1.085247373680   105.61566509   176.58996272
 H      8   7   5     1.090601137935   110.00865748    56.53485551
 H      8   7   5     1.090557036974   109.96389298   296.49784102

---------------------------
INTERNAL COORDINATES (A.U.)
---------------------------
 C      0   0   0     0.000000000000     0.00000000     0.00000000
 C      1   0   0     2.879729970302     0.00000000     0.00000000
 C      2   1   0     2.884757938421   111.57238124     0.00000000
 C      3   2   1     2.883434864449   111.80948030   179.83742970
 C      4   3   2     2.844594422592   112.28463117   178.03193258
 O      5   4   3     2.290550871768   125.73287287   352.68629658
 O      5   4   3     2.516662841806   111.29379298   172.91752387
 C      7   5   4     2.702901137116   117.45689414   179.33127777
 H      1   2   3     2.055044849077   110.46566910    59.74914265
 H      1   2   3     2.053981807904   110.57658741   179.87364820
 H      1   2   3     2.055015555751   110.48512669   300.00049724
 H      2   1   3     2.063045768622   109.40034261   121.05436049
 H      2   1   3     2.063076532421   109.37807668   238.93589390
 H      3   2   1     2.063327144178   109.78114367    58.53992312
 H      3   2   1     2.063209354904   109.87784136   301.00773406
 H      4   3   2     2.064328243705   110.48792051    58.18757331
 H      4   3   2     2.061995110460   111.20786778   299.22427041
 H      8   7   5     2.050820323813   105.61566509   176.58996272
 H      8   7   5     2.060937472039   110.00865748    56.53485551
 H      8   7   5     2.060854133301   109.96389298   296.49784102

---------------------
BASIS SET INFORMATION
---------------------
There are 3 groups of distinct atoms

 Group   1 Type C   : 11s6p1d contracted to 5s3p1d pattern {62111/411/1}
 Group   2 Type O   : 11s6p2d contracted to 5s3p2d pattern {62111/411/11}
 Group   3 Type H   : 4s1p contracted to 2s1p pattern {31/1}

Atom   0C    basis set group =>   1
Atom   1C    basis set group =>   1
Atom   2C    basis set group =>   1
Atom   3C    basis set group =>   1
Atom   4C    basis set group =>   1
Atom   5O    basis set group =>   2
Atom   6O    basis set group =>   2
Atom   7C    basis set group =>   1
Atom   8H    basis set group =>   3
Atom   9H    basis set group =>   3
Atom  10H    basis set group =>   3
Atom  11H    basis set group =>   3
Atom  12H    basis set group =>   3
Atom  13H    basis set group =>   3
Atom  14H    basis set group =>   3
Atom  15H    basis set group =>   3
Atom  16H    basis set group =>   3
Atom  17H    basis set group =>   3
Atom  18H    basis set group =>   3
Atom  19H    basis set group =>   3
---------------------------------
AUXILIARY/J BASIS SET INFORMATION
---------------------------------
There are 3 groups of distinct atoms

 Group   1 Type C   : 12s5p4d2f1g contracted to 6s4p3d1f1g pattern {711111/2111/211/2/1}
 Group   2 Type O   : 12s5p4d2f1g contracted to 6s4p3d1f1g pattern {711111/2111/211/2/1}
 Group   3 Type H   : 5s2p1d contracted to 3s1p1d pattern {311/2/1}

Atom   0C    basis set group =>   1
Atom   1C    basis set group =>   1
Atom   2C    basis set group =>   1
Atom   3C    basis set group =>   1
Atom   4C    basis set group =>   1
Atom   5O    basis set group =>   2
Atom   6O    basis set group =>   2
Atom   7C    basis set group =>   1
Atom   8H    basis set group =>   3
Atom   9H    basis set group =>   3
Atom  10H    basis set group =>   3
Atom  11H    basis set group =>   3
Atom  12H    basis set group =>   3
Atom  13H    basis set group =>   3
Atom  14H    basis set group =>   3
Atom  15H    basis set group =>   3
Atom  16H    basis set group =>   3
Atom  17H    basis set group =>   3
Atom  18H    basis set group =>   3
Atom  19H    basis set group =>   3

Checking for AutoStart:
The File: sp_solv.gbw exists
Trying to determine its content:
     ... Fine, the file contains calculation information
     ... Fine, the calculation information was read
     ... Fine, the file contains a basis set
     ... Fine, the basis set was read
     ... Fine, the file contains a geometry
     ... Fine, the geometry was read
     ... Fine, the file contains a set of orbitals
     ... Fine, the orbitals can be read
     => possible old guess file was deleted
     => GBW file was renamed to GES file
     => GES file is set as startup file
     => Guess is set to MORead
     ... now leaving AutoStart

------------------------------------------------------------------------------
                             ORCA STARTUP CALCULATIONS
                           -- RI-GTO INTEGRALS CHOSEN --
------------------------------------------------------------------------------
------------------------------------------------------------------------------
                   ___                                                        
                  /   \      - P O W E R E D   B Y -                         
                 /     \                                                     
                 |  |  |   _    _      __       _____    __    __             
                 |  |  |  | |  | |    /  \     |  _  \  |  |  /  |          
                  \  \/   | |  | |   /    \    | | | |  |  | /  /          
                 / \  \   | |__| |  /  /\  \   | |_| |  |  |/  /          
                |  |  |   |  __  | /  /__\  \  |    /   |      \           
                |  |  |   | |  | | |   __   |  |    \   |  |\   \          
                \     /   | |  | | |  |  |  |  | |\  \  |  | \   \       
                 \___/    |_|  |_| |__|  |__|  |_| \__\ |__|  \__/        
                                                                              
                      - O R C A' S   B I G   F R I E N D -                    
                                      &                                       
                       - I N T E G R A L  F E E D E R -                       
                                                                              
 v1 FN, 2020, v2 2021, v3 2022-2024                                           
------------------------------------------------------------------------------


----------------------
SHARK INTEGRAL PACKAGE
----------------------

Number of atoms                             ...     20
Number of basis functions                   ...    222
Number of shells                            ...    110
Maximum angular momentum                    ...      2
Integral batch strategy                     ... SHARK/LIBINT Hybrid
RI-J (if used) integral strategy            ... SPLIT-RIJ (Revised 2003 algorithm where possible)
Printlevel                                  ...      1
Contraction scheme used                     ... SEGMENTED contraction
Prescreening option                         ... SCHWARTZ
   Thresh                                   ... 1.000e-10
   Tcut                                     ... 1.000e-11
   Tpresel                                  ... 1.000e-11 
Coulomb Range Separation                    ... NOT USED
Exchange Range Separation                   ... NOT USED
Multipole approximations                    ... NOT USED
Finite Nucleus Model                        ... NOT USED
CABS basis                                  ... NOT available
Auxiliary Coulomb fitting basis             ... AVAILABLE
   # of basis functions in Aux-J            ...    524
   # of shells in Aux-J                     ...    180
   Maximum angular momentum in Aux-J        ...      4
Auxiliary J/K fitting basis                 ... NOT available
Auxiliary Correlation fitting basis         ... NOT available
Auxiliary 'external' fitting basis          ... NOT available

Checking pre-screening integrals            ... done (  0.0 sec) Dimension = 110
Check shell pair data                       ... done (  0.0 sec)
Shell pair information
Shell pair cut-off parameter TPreSel        ...   1.0e-11
Total number of shell pairs                 ...      6105
Shell pairs after pre-screening             ...      5077
Total number of primitive shell pairs       ...     21533
Primitive shell pairs kept                  ...     12729
          la=0 lb=0:   1697 shell pairs
          la=1 lb=0:   1922 shell pairs
          la=1 lb=1:    565 shell pairs
          la=2 lb=0:    538 shell pairs
          la=2 lb=1:    308 shell pairs
          la=2 lb=2:     47 shell pairs

Calculating one electron integrals          ... done (  0.0 sec)
Calculating RI/J V-Matrix + Cholesky decomp.... done (  0.1 sec)
Calculating Nuclear repulsion               ... done (  0.0 sec) ENN=    380.391136139627 Eh

Diagonalization of the overlap matrix:
Smallest eigenvalue                        ... 8.598e-05
Time for diagonalization                   ...    0.005 sec
Threshold for overlap eigenvalues          ... 1.000e-07
Number of eigenvalues below threshold      ... 0
Time for construction of square roots      ...    0.022 sec
Total time needed                          ...    0.036 sec

-------------------
DFT GRID GENERATION
-------------------

General Integration Accuracy     IntAcc      ... 4.388
Radial Grid Type                 RadialGrid  ... OptM3 with GC (2021)
Angular Grid (max. ang.)         AngularGrid ... 4 (Lebedev-302)
Angular grid pruning method      GridPruning ... 4 (adaptive)
Weight generation scheme         WeightScheme... mBecke (2022)
Basis function cutoff            BFCut       ... 1.0000e-10
Integration weight cutoff        WCut        ... 1.0000e-14
Partially contracted basis set               ... off
Rotationally invariant grid construction     ... off
Angular grids for H and He will be reduced by one unit
Diffuse basis detected: some atoms will have their outermost
                        angular grid increased by 1.

Total number of grid points                  ...    87403
Total number of batches                      ...     1375
Average number of points per batch           ...       63
Average number of grid points per atom       ...     4370
Initializing property integral containers    ... done (  0.0 sec)

SHARK setup successfully completed in   1.2 seconds

Maximum memory used throughout the entire STARTUP-calculation: 39.0 MB
-------------------------------------------------------------------------------
                                 ORCA GUESS
                   Start orbitals & Density for SCF / CASSCF
-------------------------------------------------------------------------------

------------
SCF SETTINGS
------------
Hamiltonian:
 Density Functional     Method          .... DFT(GTOs)
  Functional kind                       .... Exchange
  Functional name                       .... Re-regularized SCAN exchange by Furness et al
  Functional family                     .... MGGA
  Functional refs                              
    [ 0] J. W. Furness, A. D. Kaplan, J. Ning, J. P. Perdew, and J. Sun.,  J. Phys. Chem. Lett. 11, 8208-8215 (2020), doi: 10.1021/acs.jpclett.0c02405
    [ 1] J. W. Furness, A. D. Kaplan, J. Ning, J. P. Perdew, and J. Sun.,  J. Phys. Chem. Lett. 11, 9248-9248 (2020), doi: 10.1021/acs.jpclett.0c03077
  Functional external parameters        .... 6
    Parameter  0 _c1        =  6.670000e-01 : c1 parameter        
    Parameter  1 _c2        =  8.000000e-01 : c2 parameter        
    Parameter  2 _d         =  1.240000e+00 : d parameter         
    Parameter  3 _k1        =  6.500000e-02 : k1 parameter        
    Parameter  4 _eta       =  1.000000e-03 : eta parameter       
    Parameter  5 _dp2       =  3.610000e-01 : dp2 parameter       
  Functional kind                       .... Correlation
  Functional name                       .... Re-regularized SCAN correlation by Furness et al
  Functional family                     .... MGGA
  Functional refs                              
    [ 0] J. W. Furness, A. D. Kaplan, J. Ning, J. P. Perdew, and J. Sun.,  J. Phys. Chem. Lett. 11, 8208-8215 (2020), doi: 10.1021/acs.jpclett.0c02405
    [ 1] J. W. Furness, A. D. Kaplan, J. Ning, J. P. Perdew, and J. Sun.,  J. Phys. Chem. Lett. 11, 9248-9248 (2020), doi: 10.1021/acs.jpclett.0c03077
  Functional external parameters        .... 1
    Parameter  0 _eta       =  1.000000e-03 : Regularization parameter
 Gradients option       PostSCFGGA      .... off
 RI-approximation to the Coulomb term is turned on
   Number of AuxJ basis functions       .... 524


General Settings:
 Integral files         IntName         .... sp_solv
 Hartree-Fock type      HFTyp           .... RHF
 Total Charge           Charge          ....    0
 Multiplicity           Mult            ....    1
 Number of Electrons    NEL             ....   64
 Basis Dimension        Dim             ....  222
 Nuclear Repulsion      ENuc            ....    380.3911361396 Eh

Convergence Acceleration:
 AO-DIIS                CNVDIIS         .... on
   Start iteration      DIISMaxIt       ....    12
   Startup error        DIISStart       ....  0.200000
   # of expansion vecs  DIISMaxEq       ....     5
   Bias factor          DIISBfac        ....   1.050
   Max. coefficient     DIISMaxC        ....  10.000
 MO-DIIS                CNVKDIIS        .... off
 Trust-Rad. Augm. Hess. CNVTRAH         .... auto
   Auto Start mean grad. ratio tolernc. ....  1.125000
   Auto Start start iteration           ....     1
   Auto Start num. interpolation iter.  ....    10
   Max. Number of Micro iterations      ....    24
   Max. Number of Macro iterations      .... Maxiter - #DIIS iter
   Number of Davidson start vectors     ....     2
   Converg. threshold    (grad. norm)   ....   3.330e-04
   Grad. Scal. Fac. for Micro threshold ....   0.100
   Minimum threshold for Micro iter.    ....   1.000e-02
   NR start threshold (gradient norm)   ....   1.000e-04
   Initial trust radius                 ....   0.400
   Minimum AH scaling param. (alpha)    ....   1.000
   Maximum AH scaling param. (alpha)    .... 1000.000
   Quad. conv. algorithm                .... NR
   White noise on init. David. guess    .... on
   Maximum white noise                  ....   0.010
   Pseudo random numbers                .... off
   Inactive MOs                         .... canonical
   Orbital update algorithm             .... Taylor
   Preconditioner                       .... Diag
   Full preconditioner red. dimension   ....   250
   COSX micro iterations for RIJONX calc.... off
 SOSCF                  CNVSOSCF        .... on
   Start iteration      SOSCFMaxIt      ....   150
   Startup grad/error   SOSCFStart      ....  0.003300
   Hessian update       SOSCFHessUp     .... L-BFGS
 Level Shifting         CNVShift        .... on
   Level shift para.    LevelShift      ....    0.2500
   Turn off err/grad.   ShiftErr        ....    0.0010
 Zerner damping         CNVZerner       .... off
 Static damping         CNVDamp         .... on
   Fraction old density DampFac         ....    0.7000
   Max. Damping (<1)    DampMax         ....    0.9800
   Min. Damping (>=0)   DampMin         ....    0.0000
   Turn off err/grad.   DampErr         ....    0.1000

SCF Procedure:
 Maximum # iterations   MaxIter         ....   125
 SCF integral mode      SCFMode         .... Direct
   Integral package                     .... SHARK and LIBINT hybrid scheme
 Reset frequency        DirectResetFreq ....    20
 Integral Threshold     Thresh          ....  1.000e-10 Eh
 Primitive CutOff       TCut            ....  1.000e-11 Eh

Convergence Tolerance:
 Convergence Check Mode ConvCheckMode   .... Total+1el-Energy
 Convergence forced     ConvForced      .... 0
 Energy Change          TolE            ....  1.000e-06 Eh
 1-El. energy change                    ....  1.000e-03 Eh
 Orbital Gradient       TolG            ....  3.330e-04
 Orbital Rotation angle TolX            ....  3.330e-04
 DIIS Error             TolErr          ....  1.000e-06

---------------------
INITIAL GUESS: MOREAD
---------------------
Guess MOs are being read from file: sp_solv.ges
Input Geometry matches current geometry (good)
Atom 0: N(Shells)= 9 and 6 - projection required
Input basis set needs projection
NBasis(read)= 136
NBasis(calc)= 222
Basis set overlap was calculated
Using GuessMode=FMatrix for the initial guess
C*T matrix was formed
Effective Fockian was calculated
Effective Fockian was diagonalized
Initial density was built
                      ------------------
                      INITIAL GUESS DONE (   0.0 sec)
                      ------------------
             **** ENERGY FILE WAS UPDATED (sp_solv.en.tmp) ****
Finished Guess after   0.3 sec
Maximum memory used throughout the entire GUESS-calculation: 14.7 MB

-------------------------------------------------------------------------------------------
                                      ORCA LEAN-SCF
                              memory conserving SCF solver
-------------------------------------------------------------------------------------------

--------------------
CPCM SOLVATION MODEL
--------------------
CPCM parameters:
  Epsilon                                         ...      78.3550
  Refrac                                          ...       1.3328
  Rsolv                                           ...       1.3000
  Surface type                                    ... GAUSSIAN VDW
  Discretization scheme                           ... Constant charge density
    Threshold for H atoms                         ...       5.0000 (charges/Ang^2)
    Threshold for non-H atoms                     ...       5.0000 (charges/Ang^2)
  Epsilon function type                           ...         CPCM
Solvent:                                          ... WATER
SMD-CDS solvent descriptors:
  Soln                                            ...       1.3328
  Soln25                                          ...       1.3323
  Sola                                            ...       0.0000
  Solb                                            ...       0.0000
  Solg                                            ...       0.0000
  Solc                                            ...       0.0000
  Solh                                            ...       0.0000
Radii:
  Scheme                                          ... Element-dependent radii
  Radius for C  used is    3.4960 Bohr (=   1.8500 Ang.)
  Radius for O  used is    2.8724 Bohr (=   1.5200 Ang.)
  Radius for H  used is    2.2677 Bohr (=   1.2000 Ang.)
Calculating surface                               ...        done! (  0.0s)
Cavity surface points                             ...         1502
Cavity Volume                                     ...     876.4982
Cavity Surface-area                               ...     585.4048
Calculating surface distance matrix               ...        done! (  0.0s)
Performing Cholesky decomposition & store         ...        done! (  0.1s)
Overall time for CPCM initialization              ...                 0.1s

----------------------------------------D-I-I-S--------------------------------------------
Iteration    Energy (Eh)           Delta-E    RMSDP     MaxDP     DIISErr   Damp  Time(sec)
-------------------------------------------------------------------------------------------
               ***  Starting incremental Fock matrix formation  ***
    1    -386.0545194866555221     0.00e+00  3.94e-03  1.81e-01  6.25e-01  0.700   3.2
    2    -386.1132112030605867    -5.87e-02  3.15e-03  1.21e-01  4.40e-01  0.700   3.0
    3    -386.1547483854755001    -4.15e-02  2.30e-03  8.07e-02  3.09e-01  0.700   2.9
    4    -386.1839460974966869    -2.92e-02  1.64e-03  5.46e-02  2.17e-01  0.700   2.9
                               ***Turning on AO-DIIS***
    5    -386.2044489701166867    -2.05e-02  1.19e-03  3.60e-02  1.52e-01  0.700   2.8
    6    -386.2188243322624430    -1.44e-02  8.42e-04  2.49e-02  1.06e-01  0.700   2.8
    7    -386.2289159343320080    -1.01e-02  5.94e-04  1.74e-02  7.40e-02  0.700   2.8
    8    -386.2359889407313176    -7.07e-03  1.39e-03  4.01e-02  5.20e-02  0.000   2.8
                              *** Initializing SOSCF ***
---------------------------------------S-O-S-C-F--------------------------------------
Iteration    Energy (Eh)           Delta-E    RMSDP     MaxDP     MaxGrad    Time(sec)
--------------------------------------------------------------------------------------
    9    -386.2525262916891506    -1.65e-02  1.23e-05  4.45e-04  1.84e-04     2.9
               *** Restarting incremental Fock matrix formation ***
   10    -386.2525264132705161    -1.22e-07  7.49e-06  2.19e-04  6.20e-05     3.2
                  *** Gradient check signals convergence ***

               *****************************************************
               *                     SUCCESS                       *
               *           SCF CONVERGED AFTER  10 CYCLES          *
               *****************************************************


SMD CDS free energy correction energy :                 5.38148     Kcal/mol
Total Energy after SMD CDS correction =              -386.243950484 Eh
             **** ENERGY FILE WAS UPDATED (sp_solv.en.tmp) ****

----------------
TOTAL SCF ENERGY
----------------

Total Energy       :       -386.24395048391852 Eh          -10510.23222 eV

Components:
Nuclear Repulsion  :        380.39113613962695 Eh           10350.96905 eV
Electronic Energy  :       -766.62730585196391 Eh          -20860.98954 eV
One Electron Energy:      -1278.15571574265232 Eh          -34780.38523 eV
Two Electron Energy:        511.52840989068847 Eh           13919.39568 eV
CPCM Dielectric    :         -0.01635670093351 Eh              -0.44509 eV
SMD CDS (Gcds)     :          0.00857592935197 Eh               0.23336 eV

Virial components:
Potential Energy   :       -770.88128082734511 Eh          -20976.74609 eV
Kinetic Energy     :        384.63733034342658 Eh           10466.51387 eV
Virial Ratio       :          2.00417697403177

DFT components:
N(Alpha)           :       32.000097483041 electrons
N(Beta)            :       32.000097483041 electrons
N(Total)           :       64.000194966081 electrons
E(X)               :      -52.084079483209 Eh       
E(C)               :       -2.037288037721 Eh       
E(XC)              :      -54.121367520929 Eh       

CPCM Solvation Model Properties:
Surface-charge          :         -0.04812730749886
Corrected charge        :          0.00000000000000
Outlying charge corr.   :          0.00017148341477 Eh               0.00467 eV
Free-energy (cav+disp)  :          0.00857592935197 Eh               0.23336 eV

---------------
SCF CONVERGENCE
---------------

  Last Energy change         ...    1.2158e-07  Tolerance :   1.0000e-06
  Last MAX-Density change    ...    2.1885e-04  Tolerance :   1.0000e-05
  Last RMS-Density change    ...    7.4927e-06  Tolerance :   1.0000e-06
  Last DIIS Error            ...    1.8426e-04  Tolerance :   1.0000e-06
  Last Orbital Gradient      ...    6.2027e-05  Tolerance :   3.3300e-04
  Last Orbital Rotation      ...    1.4032e-04  Tolerance :   3.3300e-04


----------------
ORBITAL ENERGIES
----------------

  NO   OCC          E(Eh)            E(eV) 
   0   2.0000     -19.002698      -517.0897 
   1   2.0000     -18.945681      -515.5382 
   2   2.0000     -10.162402      -276.5330 
   3   2.0000     -10.076178      -274.1867 
   4   2.0000     -10.036118      -273.0967 
   5   2.0000     -10.021575      -272.7009 
   6   2.0000     -10.018126      -272.6071 
   7   2.0000     -10.008093      -272.3341 
   8   2.0000      -1.078862       -29.3573 
   9   2.0000      -0.989573       -26.9276 
  10   2.0000      -0.769953       -20.9515 
  11   2.0000      -0.723506       -19.6876 
  12   2.0000      -0.679691       -18.4953 
  13   2.0000      -0.608187       -16.5496 
  14   2.0000      -0.545858       -14.8535 
  15   2.0000      -0.525537       -14.3006 
  16   2.0000      -0.468135       -12.7386 
  17   2.0000      -0.463116       -12.6020 
  18   2.0000      -0.451857       -12.2957 
  19   2.0000      -0.432272       -11.7627 
  20   2.0000      -0.395508       -10.7623 
  21   2.0000      -0.392190       -10.6720 
  22   2.0000      -0.382042       -10.3959 
  23   2.0000      -0.353548        -9.6205 
  24   2.0000      -0.346662        -9.4331 
  25   2.0000      -0.325992        -8.8707 
  26   2.0000      -0.317537        -8.6406 
  27   2.0000      -0.301101        -8.1934 
  28   2.0000      -0.294147        -8.0041 
  29   2.0000      -0.290497        -7.9048 
  30   2.0000      -0.278671        -7.5830 
  31   2.0000      -0.253860        -6.9079 
  32   0.0000      -0.021056        -0.5730 
  33   0.0000       0.073590         2.0025 
  34   0.0000       0.095192         2.5903 
  35   0.0000       0.112131         3.0512 
  36   0.0000       0.129225         3.5164 
  37   0.0000       0.135716         3.6930 
  38   0.0000       0.142649         3.8817 
  39   0.0000       0.149606         4.0710 
  40   0.0000       0.161067         4.3828 
  41   0.0000       0.177447         4.8286 
  42   0.0000       0.183656         4.9975 
*Only the first 10 virtual orbitals were printed.

                    ********************************
                    * MULLIKEN POPULATION ANALYSIS *
                    ********************************

-----------------------
MULLIKEN ATOMIC CHARGES
-----------------------
   0 C :   -0.510453
   1 C :   -0.242062
   2 C :   -0.307575
   3 C :   -0.285178
   4 C :    0.393269
   5 O :   -0.502864
   6 O :   -0.200195
   7 C :   -0.330647
   8 H :    0.153608
   9 H :    0.157675
  10 H :    0.153575
  11 H :    0.147391
  12 H :    0.148242
  13 H :    0.156774
  14 H :    0.156100
  15 H :    0.192284
  16 H :    0.187113
  17 H :    0.178344
  18 H :    0.176851
  19 H :    0.177749
Sum of atomic charges:    0.0000000

--------------------------------
MULLIKEN REDUCED ORBITAL CHARGES
--------------------------------
  0 C s       :     3.345878  s :     3.345878
      pz      :     1.047789  p :     3.137489
      px      :     1.006551
      py      :     1.083149
      dz2     :     0.004909  d :     0.027086
      dxz     :     0.006503
      dyz     :     0.004921
      dx2y2   :     0.008176
      dxy     :     0.002576

  1 C s       :     3.226406  s :     3.226406
      pz      :     1.002039  p :     2.978581
      px      :     0.902288
      py      :     1.074254
      dz2     :     0.006842  d :     0.037075
      dxz     :     0.008799
      dyz     :     0.006148
      dx2y2   :     0.010587
      dxy     :     0.004699

  2 C s       :     3.261127  s :     3.261127
      pz      :     1.004173  p :     3.009988
      px      :     0.926721
      py      :     1.079094
      dz2     :     0.006534  d :     0.036460
      dxz     :     0.008853
      dyz     :     0.006161
      dx2y2   :     0.010291
      dxy     :     0.004622

  3 C s       :     3.189766  s :     3.189766
      pz      :     1.024753  p :     3.060205
      px      :     0.932455
      py      :     1.102996
      dz2     :     0.005795  d :     0.035207
      dxz     :     0.009425
      dyz     :     0.005525
      dx2y2   :     0.010178
      dxy     :     0.004284

  4 C s       :     3.149548  s :     3.149548
      pz      :     0.760451  p :     2.332923
      px      :     0.844073
      py      :     0.728399
      dz2     :     0.027587  d :     0.124260
      dxz     :     0.049972
      dyz     :     0.022889
      dx2y2   :     0.010655
      dxy     :     0.013157

  5 O s       :     3.838920  s :     3.838920
      pz      :     1.337908  p :     4.642889
      px      :     1.820494
      py      :     1.484487
      dz2     :     0.008897  d :     0.021055
      dxz     :     0.002059
      dyz     :     0.007128
      dx2y2   :     0.001011
      dxy     :     0.001960

  6 O s       :     3.707221  s :     3.707221
      pz      :     1.623878  p :     4.454633
      px      :     1.090718
      py      :     1.740036
      dz2     :     0.007386  d :     0.038342
      dxz     :     0.017071
      dyz     :     0.007247
      dx2y2   :     0.001740
      dxy     :     0.004900

  7 C s       :     3.346037  s :     3.346037
      pz      :     1.076316  p :     2.941788
      px      :     0.757323
      py      :     1.108149
      dz2     :     0.004467  d :     0.042823
      dxz     :     0.012490
      dyz     :     0.007147
      dx2y2   :     0.011823
      dxy     :     0.006895

  8 H s       :     0.828095  s :     0.828095
      pz      :     0.009172  p :     0.018298
      px      :     0.003574
      py      :     0.005552

  9 H s       :     0.823960  s :     0.823960
      pz      :     0.005393  p :     0.018365
      px      :     0.008881
      py      :     0.004091

 10 H s       :     0.828121  s :     0.828121
      pz      :     0.004068  p :     0.018304
      px      :     0.003582
      py      :     0.010654

 11 H s       :     0.834677  s :     0.834677
      pz      :     0.009143  p :     0.017932
      px      :     0.003393
      py      :     0.005396

 12 H s       :     0.833828  s :     0.833828
      pz      :     0.003903  p :     0.017930
      px      :     0.003380
      py      :     0.010646

 13 H s       :     0.825254  s :     0.825254
      pz      :     0.003968  p :     0.017972
      px      :     0.003308
      py      :     0.010696

 14 H s       :     0.825893  s :     0.825893
      pz      :     0.009320  p :     0.018007
      px      :     0.003333
      py      :     0.005354

 15 H s       :     0.789455  s :     0.789455
      pz      :     0.004098  p :     0.018262
      px      :     0.003303
      py      :     0.010861

 16 H s       :     0.794688  s :     0.794688
      pz      :     0.009399  p :     0.018198
      px      :     0.003205
      py      :     0.005595

 17 H s       :     0.803794  s :     0.803794
      pz      :     0.007757  p :     0.017862
      px      :     0.006418
      py      :     0.003687

 18 H s       :     0.805266  s :     0.805266
      pz      :     0.004846  p :     0.017882
      px      :     0.002366
      py      :     0.010670

 19 H s       :     0.804440  s :     0.804440
      pz      :     0.008037  p :     0.017811
      px      :     0.002673
      py      :     0.007102


------------------------
MULLIKEN OVERLAP CHARGES
------------------------
B(  0-C ,  1-C ) :   0.4565 B(  0-C ,  2-C ) :  -0.1822 B(  0-C ,  8-H ) :   0.8530 
B(  0-C ,  9-H ) :   0.8115 B(  0-C , 10-H ) :   0.8516 B(  0-C , 11-H ) :  -0.0591 
B(  0-C , 12-H ) :  -0.0598 B(  1-C ,  2-C ) :   0.4522 B(  1-C ,  3-C ) :  -0.1221 
B(  1-C ,  8-H ) :  -0.0925 B(  1-C ,  9-H ) :  -0.0860 B(  1-C , 10-H ) :  -0.0870 
B(  1-C , 11-H ) :   0.8489 B(  1-C , 12-H ) :   0.8661 B(  1-C , 13-H ) :  -0.0622 
B(  1-C , 14-H ) :  -0.0722 B(  2-C ,  3-C ) :   0.4254 B(  2-C ,  4-C ) :  -0.0965 
B(  2-C ,  5-O ) :   0.0849 B(  2-C , 11-H ) :  -0.0762 B(  2-C , 12-H ) :  -0.0924 
B(  2-C , 13-H ) :   0.8531 B(  2-C , 14-H ) :   0.8559 B(  2-C , 15-H ) :  -0.0681 
B(  2-C , 16-H ) :  -0.0661 B(  3-C ,  4-C ) :   0.5903 B(  3-C ,  5-O ) :  -0.2363 
B(  3-C ,  6-O ) :  -0.1333 B(  3-C , 13-H ) :  -0.0668 B(  3-C , 14-H ) :  -0.0555 
B(  3-C , 15-H ) :   0.7957 B(  3-C , 16-H ) :   0.8212 B(  4-C ,  5-O ) :   0.9858 
B(  4-C ,  6-O ) :   0.5333 B(  4-C ,  7-C ) :  -0.1893 B(  5-O ,  6-O ) :  -0.2206 
B(  5-O ,  7-C ) :   0.0609 B(  6-O ,  7-C ) :   0.3239 B(  6-O , 17-H ) :  -0.0794 
B(  6-O , 18-H ) :  -0.0599 B(  6-O , 19-H ) :  -0.0622 B(  7-C , 17-H ) :   0.7937 
B(  7-C , 18-H ) :   0.8214 B(  7-C , 19-H ) :   0.8151 B(  8-H , 10-H ) :  -0.0528 
B( 11-H , 12-H ) :  -0.0552 B( 13-H , 14-H ) :  -0.0566 B( 18-H , 19-H ) :  -0.0594 



                     *******************************
                     * LOEWDIN POPULATION ANALYSIS *
                     *******************************

----------------------
LOEWDIN ATOMIC CHARGES
----------------------
   0 C :   -0.431957
   1 C :   -0.313678
   2 C :   -0.293921
   3 C :   -0.227429
   4 C :    0.370694
   5 O :   -0.486421
   6 O :   -0.608076
   7 C :   -0.043488
   8 H :    0.152661
   9 H :    0.152810
  10 H :    0.152617
  11 H :    0.155258
  12 H :    0.155235
  13 H :    0.163080
  14 H :    0.164176
  15 H :    0.194657
  16 H :    0.192381
  17 H :    0.188011
  18 H :    0.182076
  19 H :    0.181314

-------------------------------
LOEWDIN REDUCED ORBITAL CHARGES
-------------------------------
  0 C s       :     2.974545  s :     2.974545
      pz      :     1.135991  p :     3.394317
      px      :     1.102396
      py      :     1.155930
      dz2     :     0.011034  d :     0.063096
      dxz     :     0.015431
      dyz     :     0.011854
      dx2y2   :     0.019645
      dxy     :     0.005132

  1 C s       :     2.937142  s :     2.937142
      pz      :     1.110652  p :     3.296374
      px      :     1.046136
      py      :     1.139587
      dz2     :     0.014332  d :     0.080162
      dxz     :     0.019338
      dyz     :     0.013887
      dx2y2   :     0.023963
      dxy     :     0.008643

  2 C s       :     2.932221  s :     2.932221
      pz      :     1.107695  p :     3.282343
      px      :     1.032821
      py      :     1.141827
      dz2     :     0.013803  d :     0.079357
      dxz     :     0.019742
      dyz     :     0.013929
      dx2y2   :     0.023283
      dxy     :     0.008599

  3 C s       :     2.918043  s :     2.918043
      pz      :     1.095069  p :     3.235481
      px      :     1.004763
      py      :     1.135649
      dz2     :     0.011928  d :     0.073905
      dxz     :     0.020105
      dyz     :     0.012195
      dx2y2   :     0.022281
      dxy     :     0.007395

  4 C s       :     2.738358  s :     2.738358
      pz      :     0.968419  p :     2.620786
      px      :     0.937179
      py      :     0.715188
      dz2     :     0.065027  d :     0.270163
      dxz     :     0.112480
      dyz     :     0.045521
      dx2y2   :     0.022450
      dxy     :     0.024685

  5 O s       :     3.542473  s :     3.542473
      pz      :     1.490691  p :     4.722513
      px      :     1.758575
      py      :     1.473248
      dz2     :     0.074218  d :     0.221435
      dxz     :     0.071396
      dyz     :     0.045868
      dx2y2   :     0.016378
      dxy     :     0.013575

  6 O s       :     3.469049  s :     3.469049
      pz      :     1.640945  p :     4.671357
      px      :     1.320389
      py      :     1.710023
      dz2     :     0.080747  d :     0.467670
      dxz     :     0.134904
      dyz     :     0.042155
      dx2y2   :     0.117325
      dxy     :     0.092538

  7 C s       :     2.909368  s :     2.909368
      pz      :     1.073907  p :     3.031516
      px      :     0.848515
      py      :     1.109094
      dz2     :     0.009505  d :     0.102604
      dxz     :     0.031621
      dyz     :     0.018634
      dx2y2   :     0.028416
      dxy     :     0.014428

  8 H s       :     0.803627  s :     0.803627
      pz      :     0.022520  p :     0.043712
      px      :     0.008013
      py      :     0.013180

  9 H s       :     0.803328  s :     0.803328
      pz      :     0.012919  p :     0.043862
      px      :     0.021760
      py      :     0.009183

 10 H s       :     0.803663  s :     0.803663
      pz      :     0.009102  p :     0.043720
      px      :     0.008026
      py      :     0.026592

 11 H s       :     0.801441  s :     0.801441
      pz      :     0.022309  p :     0.043301
      px      :     0.007941
      py      :     0.013051

 12 H s       :     0.801472  s :     0.801472
      pz      :     0.009040  p :     0.043293
      px      :     0.007901
      py      :     0.026352

 13 H s       :     0.793429  s :     0.793429
      pz      :     0.009188  p :     0.043492
      px      :     0.007666
      py      :     0.026638

 14 H s       :     0.792187  s :     0.792187
      pz      :     0.022947  p :     0.043637
      px      :     0.007699
      py      :     0.012990

 15 H s       :     0.760384  s :     0.760384
      pz      :     0.009763  p :     0.044959
      px      :     0.007677
      py      :     0.027519

 16 H s       :     0.762837  s :     0.762837
      pz      :     0.023541  p :     0.044782
      px      :     0.007403
      py      :     0.013838

 17 H s       :     0.771063  s :     0.771063
      pz      :     0.019736  p :     0.040926
      px      :     0.013123
      py      :     0.008067

 18 H s       :     0.776086  s :     0.776086
      pz      :     0.010761  p :     0.041838
      px      :     0.005325
      py      :     0.025752

 19 H s       :     0.777070  s :     0.777070
      pz      :     0.018544  p :     0.041616
      px      :     0.005767
      py      :     0.017305


---------------------------------
LOEWDIN BOND ORDERS (THRESH 0.050000)
---------------------------------
B(  0-C ,  1-C ) :   1.1436 B(  0-C ,  2-C ) :   0.0762 B(  0-C ,  8-H ) :   0.9293 
B(  0-C ,  9-H ) :   0.9298 B(  0-C , 10-H ) :   0.9294 B(  1-C ,  2-C ) :   1.1007 
B(  1-C ,  3-C ) :   0.0799 B(  1-C , 11-H ) :   0.8935 B(  1-C , 12-H ) :   0.8939 
B(  2-C ,  3-C ) :   1.0816 B(  2-C ,  4-C ) :   0.0742 B(  2-C ,  5-O ) :   0.0531 
B(  2-C , 13-H ) :   0.8851 B(  2-C , 14-H ) :   0.8827 B(  3-C ,  4-C ) :   0.9312 
B(  3-C ,  5-O ) :   0.1780 B(  3-C ,  6-O ) :   0.1869 B(  3-C , 15-H ) :   0.8517 
B(  3-C , 16-H ) :   0.8546 B(  4-C ,  5-O ) :   2.1415 B(  4-C ,  6-O ) :   1.4631 
B(  4-C ,  7-C ) :   0.0903 B(  5-O ,  6-O ) :   0.4551 B(  5-O ,  7-C ) :   0.0699 
B(  6-O ,  7-C ) :   1.3550 B(  6-O , 17-H ) :   0.1004 B(  6-O , 18-H ) :   0.0984 
B(  6-O , 19-H ) :   0.0986 B(  7-C , 17-H ) :   0.8600 B(  7-C , 18-H ) :   0.8543 
B(  7-C , 19-H ) :   0.8566 

------------------------------------------
LOEWDIN REDUCED ORBITAL POPULATIONS PER MO
-------------------------------------------
THRESHOLD FOR PRINTING IS 0.1%%
                      0         1         2         3         4         5   
                 -19.00270 -18.94568 -10.16240 -10.07618 -10.03612 -10.02157
                   2.00000   2.00000   2.00000   2.00000   2.00000   2.00000
                  --------  --------  --------  --------  --------  --------
 2 C  s               0.0       0.0       0.0       0.0       0.0      99.6
 3 C  s               0.0       0.0       0.0       0.0      99.7       0.0
 4 C  s               0.0       0.0      98.9       0.0       0.0       0.0
 5 O  s               0.0      99.9       0.0       0.0       0.0       0.0
 5 O  pz              0.0       0.0       0.2       0.0       0.0       0.0
 5 O  dz2             0.0       0.0       0.3       0.0       0.0       0.0
 6 O  s              99.9       0.0       0.0       0.0       0.0       0.0
 6 O  dxz             0.0       0.0       0.2       0.1       0.0       0.0
 6 O  dx2y2           0.0       0.0       0.1       0.1       0.0       0.0
 7 C  s               0.0       0.0       0.0      99.4       0.0       0.0

                      6         7         8         9        10        11   
                 -10.01813 -10.00809  -1.07886  -0.98957  -0.76995  -0.72351
                   2.00000   2.00000   2.00000   2.00000   2.00000   2.00000
                  --------  --------  --------  --------  --------  --------
 0 C  s               0.0      99.7       0.0       0.0       5.1      12.0
 0 C  pz              0.0       0.0       0.0       0.0       0.3       0.4
 0 C  px              0.1       0.0       0.0       0.0       1.4       0.9
 1 C  s              99.6       0.0       0.0       0.0      13.9      13.0
 1 C  pz              0.0       0.0       0.0       0.0       0.8       0.6
 1 C  px              0.0       0.1       0.0       0.0       1.0       0.9
 1 C  py              0.0       0.0       0.0       0.0       0.2       0.1
 2 C  s               0.1       0.0       0.1       0.1      20.8       1.2
 2 C  pz              0.0       0.0       0.0       0.0       1.4       0.0
 2 C  px              0.1       0.0       0.3       0.2       0.0       5.5
 2 C  py              0.0       0.0       0.0       0.0       0.2       0.0
 3 C  s               0.0       0.0       1.0       0.1      18.9       6.2
 3 C  pz              0.0       0.0       0.3       0.4       0.6       0.0
 3 C  px              0.0       0.0       1.7       0.0       0.9       2.9
 4 C  s               0.0       0.0      17.1       2.9       2.1       3.8
 4 C  pz              0.0       0.0       0.1      20.0       2.8       4.7
 4 C  px              0.0       0.0       4.7       2.4       4.4       1.6
 4 C  py              0.0       0.0       0.0       1.3       0.3       0.5
 4 C  dz2             0.0       0.0       0.3       1.1       0.0       0.0
 4 C  dxz             0.0       0.0       0.3       0.4       0.0       0.0
 4 C  dyz             0.0       0.0       0.2       0.2       0.0       0.0
 4 C  dx2y2           0.0       0.0       0.2       0.2       0.0       0.1
 5 O  s               0.0       0.0      15.4      39.8       1.0       1.2
 5 O  pz              0.0       0.0       3.2       2.8       0.3       0.5
 5 O  px              0.0       0.0       0.0       0.1       0.2       0.1
 5 O  py              0.0       0.0       0.2       0.2       0.0       0.0
 5 O  dz2             0.0       0.0       0.9       0.1       0.1       0.4
 5 O  dxz             0.0       0.0       0.2       0.2       0.3       0.2
 5 O  dyz             0.0       0.0       0.2       0.0       0.1       0.1
 6 O  s               0.0       0.0      38.7      20.0       0.1       0.0
 6 O  pz              0.0       0.0       2.4       0.4       0.0       0.0
 6 O  px              0.0       0.0       0.3       0.6       2.7      13.5
 6 O  py              0.0       0.0       0.1       0.0       0.0       0.0
 6 O  dz2             0.0       0.0       0.1       0.4       0.1       0.0
 6 O  dxz             0.0       0.0       0.3       0.8       0.1       0.7
 6 O  dx2y2           0.0       0.0       0.4       0.0       0.1       0.0
 7 C  s               0.0       0.0       4.1       2.1       1.2       9.3
 7 C  pz              0.0       0.0       0.3       0.6       0.0       0.1
 7 C  px              0.0       0.0       4.7       1.5       0.1       0.2
 7 C  dxz             0.0       0.0       0.1       0.1       0.0       0.0
 7 C  dx2y2           0.0       0.0       0.2       0.1       0.0       0.0
 8 H  s               0.0       0.0       0.0       0.0       0.6       1.9
 8 H  pz              0.0       0.0       0.0       0.0       0.0       0.1
 9 H  s               0.0       0.0       0.0       0.0       0.6       1.8
 9 H  px              0.0       0.0       0.0       0.0       0.0       0.1
10 H  s               0.0       0.0       0.0       0.0       0.6       1.9
10 H  py              0.0       0.0       0.0       0.0       0.1       0.2
11 H  s               0.0       0.0       0.0       0.0       1.7       1.9
11 H  pz              0.0       0.0       0.0       0.0       0.1       0.1
12 H  s               0.0       0.0       0.0       0.0       1.7       1.9
12 H  py              0.0       0.0       0.0       0.0       0.2       0.2
13 H  s               0.0       0.0       0.0       0.0       2.6       0.2
13 H  py              0.0       0.0       0.0       0.0       0.2       0.0
14 H  s               0.0       0.0       0.0       0.0       2.6       0.2
14 H  pz              0.0       0.0       0.0       0.0       0.2       0.0
15 H  s               0.0       0.0       0.0       0.0       2.7       1.1
15 H  py              0.0       0.0       0.0       0.0       0.2       0.1
16 H  s               0.0       0.0       0.1       0.0       2.7       1.2
16 H  pz              0.0       0.0       0.0       0.0       0.2       0.1
17 H  s               0.0       0.0       0.2       0.2       0.2       2.0
17 H  px              0.0       0.0       0.0       0.0       0.0       0.1
18 H  s               0.0       0.0       0.3       0.1       0.2       1.6
18 H  py              0.0       0.0       0.0       0.0       0.0       0.1
19 H  s               0.0       0.0       0.3       0.1       0.2       1.6

                     12        13        14        15        16        17   
                  -0.67969  -0.60819  -0.54586  -0.52554  -0.46814  -0.46312
                   2.00000   2.00000   2.00000   2.00000   2.00000   2.00000
                  --------  --------  --------  --------  --------  --------
 0 C  s              11.4      14.2       4.8       0.0       0.3       0.0
 0 C  pz              0.1       0.3       3.8       0.5       0.7       0.2
 0 C  px              0.0       2.2       2.5       0.0       0.8       0.0
 0 C  py              0.0       0.0       0.7       0.1       0.2       0.4
 0 C  dxz             0.0       0.0       0.1       0.0       0.0       0.0
 1 C  s               2.7       2.2      12.2       0.8       0.9       0.0
 1 C  pz              0.1       0.1       6.9       2.2       0.0       0.5
 1 C  px              4.8       7.8       0.0       0.2       0.9       0.0
 1 C  py              0.0       0.0       1.3       0.4       0.1       1.9
 1 C  dxz             0.1       0.2       0.0       0.0       0.0       0.0
 2 C  s               4.2       9.7       5.5       3.1       0.1       0.0
 2 C  pz              0.1       0.2       5.2       3.7       2.6       0.7
 2 C  px              3.5       2.1       2.4       0.3       0.0       0.0
 2 C  py              0.0       0.0       1.0       0.8       0.1       5.7
 3 C  s               6.6       5.8       0.0       3.1       2.0       0.0
 3 C  pz              0.2       0.7       1.8       3.2      11.6       1.1
 3 C  px              1.5       5.0       1.5       0.2       6.8       0.1
 3 C  py              0.0       0.1       0.4       0.7       0.7      13.2
 3 C  dxz             0.0       0.1       0.1       0.0       0.2       0.0
 3 C  dx2y2           0.0       0.0       0.0       0.1       0.1       0.0
 4 C  s               0.8       1.4       1.0       3.1       3.1       0.0
 4 C  pz              0.7       0.7       0.4       0.8       0.6       1.6
 4 C  px              3.4       4.3       0.3       2.4      11.7       0.4
 4 C  py              0.0       0.2       0.1       0.0       0.2      16.2
 4 C  dxz             0.2       0.2       0.0       0.0       0.0       0.0
 5 O  s               0.0       0.3       0.2       3.2       4.0       0.0
 5 O  pz              0.1       0.3       0.5       4.1       9.4       0.4
 5 O  px              0.1       0.2       0.4       0.6      10.3       0.2
 5 O  py              0.0       0.0       0.0       0.2       1.5       8.1
 5 O  dz2             0.2       0.1       0.1       0.2       0.1       0.2
 5 O  dxz             0.1       0.2       0.0       0.1       1.0       0.0
 5 O  dyz             0.0       0.0       0.0       0.0       0.1       0.8
 5 O  dx2y2           0.1       0.0       0.0       0.0       0.0       0.1
 6 O  s               0.7       1.6       1.7       4.1       0.4       0.0
 6 O  pz              0.1       0.1       1.3       8.9       5.0       3.3
 6 O  px             13.7       0.1       2.9      13.0       1.6       0.1
 6 O  py              0.0       0.0       0.0       0.5       0.8      18.7
 6 O  dz2             0.2       0.4       0.0       0.0       0.5       0.2
 6 O  dxz             0.9       0.1       0.1       0.1       0.9       0.0
 6 O  dyz             0.0       0.0       0.0       0.0       0.1       0.5
 6 O  dx2y2           0.9       1.3       0.3       0.1       0.4       0.0
 6 O  dxy             0.1       0.0       0.0       0.0       0.0       0.1
 7 C  s              16.8       5.4       2.0       3.6       0.0       0.0
 7 C  pz              0.0       0.2       1.8       7.9       5.7       1.4
 7 C  px              0.3       1.4       2.1       4.8       0.4       0.0
 7 C  py              0.0       0.0       0.2       0.8       0.7       9.4
 7 C  dxz             0.0       0.0       0.1       0.3       0.0       0.0
 7 C  dx2y2           0.0       0.0       0.1       0.2       0.0       0.0
 8 H  s               2.1       3.9       2.9       0.1       0.3       0.2
 8 H  pz              0.1       0.2       0.1       0.0       0.0       0.0
 9 H  s               2.3       4.6       1.8       0.0       0.2       0.0
 9 H  pz              0.0       0.1       0.1       0.0       0.0       0.0
 9 H  px              0.1       0.2       0.0       0.0       0.0       0.0
10 H  s               2.1       3.9       2.9       0.1       0.4       0.1
10 H  py              0.2       0.3       0.2       0.0       0.0       0.0
11 H  s               0.5       0.6       6.4       0.8       0.3       0.6
11 H  pz              0.0       0.0       0.3       0.0       0.0       0.0
11 H  py              0.0       0.0       0.2       0.0       0.0       0.0
12 H  s               0.5       0.6       6.4       0.9       0.5       0.3
12 H  py              0.0       0.0       0.5       0.1       0.0       0.0
13 H  s               0.8       2.5       3.4       2.3       0.0       1.1
13 H  py              0.1       0.2       0.2       0.2       0.0       0.0
14 H  s               0.8       2.5       3.5       2.1       0.2       1.1
14 H  pz              0.1       0.2       0.1       0.1       0.0       0.1
14 H  py              0.0       0.1       0.1       0.1       0.0       0.0
15 H  s               1.2       2.0       0.2       2.4       3.0       3.4
15 H  py              0.1       0.2       0.0       0.2       0.2       0.1
16 H  s               1.1       1.9       0.2       2.2       4.6       2.2
16 H  pz              0.1       0.1       0.0       0.1       0.1       0.1
16 H  py              0.0       0.1       0.0       0.1       0.1       0.0
17 H  s               4.4       1.9       0.6       0.6       1.6       0.2
17 H  pz              0.2       0.1       0.1       0.1       0.0       0.0
17 H  px              0.2       0.0       0.0       0.0       0.1       0.0
18 H  s               3.5       1.8       1.5       4.3       0.8       1.8
18 H  py              0.3       0.1       0.1       0.2       0.0       0.0
19 H  s               3.6       1.8       1.5       3.9       0.3       2.3
19 H  pz              0.2       0.1       0.0       0.1       0.0       0.1
19 H  py              0.1       0.1       0.1       0.2       0.0       0.0

                     18        19        20        21        22        23   
                  -0.45186  -0.43227  -0.39551  -0.39219  -0.38204  -0.35355
                   2.00000   2.00000   2.00000   2.00000   2.00000   2.00000
                  --------  --------  --------  --------  --------  --------
 0 C  s               0.0       0.0       0.0       0.0       0.1       0.0
 0 C  pz              0.0       1.2       6.5       4.0       2.0       0.0
 0 C  px              0.5       0.0       5.5       0.0      17.6       0.0
 0 C  py              0.0       6.5       3.3      11.5       0.1      12.4
 0 C  dxz             0.0       0.0       0.0       0.0       0.2       0.0
 1 C  s               0.0       0.0       0.0       0.0       0.5       0.0
 1 C  pz              0.5       2.7       5.3       2.5       7.0       0.1
 1 C  px              0.0       0.0       3.6       0.2       0.8       0.6
 1 C  py              0.0      15.3       2.7       8.7       0.7       0.3
 2 C  s               0.1       0.0       0.0       0.0       0.7       0.0
 2 C  pz              1.8       2.6       0.7       0.3       2.2       0.0
 2 C  px              0.9       0.0       8.6       0.1       4.4       0.0
 2 C  py              0.2      14.7       0.2       0.0       0.6       9.0
 2 C  dxy             0.0       0.0       0.0       0.1       0.0       0.0
 3 C  s               0.5       0.0       0.0       0.0       0.1       0.0
 3 C  pz              0.0       0.8       6.7       3.8       0.4       1.5
 3 C  px              2.7       0.0       0.0       0.1       9.6       0.1
 3 C  py              0.0       4.7       3.3      10.9       0.1       2.3
 3 C  dxz             0.0       0.0       0.0       0.0       0.2       0.0
 4 C  s               0.9       0.0       0.2       0.0       0.2       0.0
 4 C  pz              5.9       0.2       2.6       0.3       0.7       0.8
 4 C  px              0.5       0.0       1.5       0.1       3.9       0.1
 4 C  py              1.1       1.2       0.2       3.5       0.1       9.1
 4 C  dz2             0.2       0.0       0.2       0.0       0.1       0.1
 4 C  dxz             0.1       0.0       0.0       0.0       0.2       0.0
 4 C  dyz             0.0       0.0       0.0       0.0       0.0       0.3
 4 C  dx2y2           0.0       0.0       0.1       0.0       0.0       0.0
 4 C  dxy             0.0       0.1       0.0       0.1       0.0       0.0
 5 O  s              10.2       0.0       0.8       0.1       0.2       0.0
 5 O  pz             29.0       0.0       7.4       1.9       1.9       1.2
 5 O  px              0.4       0.0       0.7       0.0       0.6       0.4
 5 O  py              1.3       1.1       1.5       2.2       0.3      22.6
 5 O  dz2             0.2       0.0       0.0       0.0       0.0       0.1
 5 O  dyz             0.0       0.1       0.0       0.1       0.0       0.3
 5 O  dx2y2           0.0       0.0       0.3       0.0       0.0       0.0
 5 O  dxy             0.0       0.2       0.0       0.2       0.0       0.0
 6 O  s               1.1       0.0       0.0       0.0       0.2       0.0
 6 O  pz             12.3       0.7       2.5       0.0       2.1       0.2
 6 O  px              8.0       0.1       0.3       0.0       4.7       0.0
 6 O  py              2.7       9.9       0.0       1.9       0.2       0.7
 6 O  dz2             0.4       0.1       0.0       0.0       0.0       0.0
 6 O  dxz             0.1       0.0       0.5       0.0       0.6       0.1
 6 O  dyz             0.1       0.3       0.0       0.0       0.0       0.0
 6 O  dx2y2           0.3       0.1       0.1       0.1       0.0       0.0
 6 O  dxy             0.0       0.3       0.1       1.8       0.0       1.5
 7 C  s               0.9       0.0       0.0       0.0       0.1       0.0
 7 C  pz              0.3       0.5       8.0       0.0       6.0       1.3
 7 C  px              9.7       0.0       4.0       0.7      10.0       0.0
 7 C  py              0.2      10.5       0.2      13.5       0.1       9.8
 7 C  dxz             0.1       0.0       0.1       0.0       0.2       0.0
 7 C  dyz             0.0       0.0       0.0       0.1       0.0       0.2
 8 H  s               0.0       1.6       0.6       4.6       0.3       1.6
 8 H  pz              0.0       0.1       0.0       0.1       0.0       0.1
 8 H  px              0.0       0.0       0.0       0.0       0.1       0.0
 9 H  s               0.2       0.0       5.2       0.1       8.5       0.3
 9 H  px              0.0       0.0       0.1       0.0       0.1       0.0
10 H  s               0.0       1.6       1.9       3.1       0.0       5.6
10 H  px              0.0       0.0       0.0       0.0       0.1       0.0
11 H  s               0.0       3.6       0.6       3.1       0.5       0.1
11 H  pz              0.0       0.2       0.0       0.1       0.0       0.0
12 H  s               0.0       3.6       1.7       2.2       0.2       0.1
13 H  s               0.3       3.5       0.2       0.0       0.0       3.9
14 H  s               0.5       3.4       0.2       0.1       0.0       1.0
14 H  pz              0.0       0.1       0.0       0.0       0.0       0.1
15 H  s               0.1       1.2       2.2       3.1       0.0       0.6
16 H  s               0.1       1.1       0.6       4.7       0.4       1.8
16 H  pz              0.0       0.0       0.0       0.1       0.0       0.0
17 H  s               3.7       0.0       5.4       0.3       8.0       0.1
17 H  pz              0.1       0.0       0.1       0.0       0.1       0.0
18 H  s               0.1       2.6       0.1       4.7       0.3       3.1
19 H  s               0.6       2.6       1.5       3.4       0.4       4.8
19 H  pz              0.0       0.1       0.0       0.1       0.0       0.1

                     24        25        26        27        28        29   
                  -0.34666  -0.32599  -0.31754  -0.30110  -0.29415  -0.29050
                   2.00000   2.00000   2.00000   2.00000   2.00000   2.00000
                  --------  --------  --------  --------  --------  --------
 0 C  s               0.1       0.0       0.0       0.9       0.0       0.0
 0 C  pz             20.5       1.1       1.9       9.1       2.6       1.4
 0 C  px              0.3       1.3       0.0       9.0      12.7       0.0
 0 C  py              1.0       0.0      12.6       1.9       0.7       6.0
 0 C  dz2             0.0       0.0       0.1       0.0       0.1       0.2
 0 C  dxz             0.0       0.0       0.0       0.1       0.2       0.0
 0 C  dyz             0.1       0.0       0.2       0.0       0.0       0.2
 0 C  dx2y2           0.2       0.0       0.1       0.2       0.3       0.0
 1 C  s               0.0       0.0       0.0       0.6       0.2       0.0
 1 C  pz              1.5       0.1       0.5      15.1       5.0       3.7
 1 C  px             10.3       0.2       0.0       3.9      16.4       0.0
 1 C  py              0.3       0.0       3.4       3.2       1.3      15.4
 1 C  dz2             0.0       0.0       0.0       0.1       0.0       0.4
 1 C  dxz             0.0       0.0       0.0       0.2       0.3       0.0
 1 C  dyz             0.0       0.0       0.0       0.0       0.0       0.5
 1 C  dx2y2           0.0       0.0       0.0       0.6       0.2       0.1
 1 C  dxy             0.0       0.0       0.1       0.0       0.1       0.0
 2 C  s               0.1       0.1       0.0       0.5       0.5       0.0
 2 C  pz             14.7       0.3       1.5      11.1       3.5       2.2
 2 C  px              0.3       1.0       0.0       2.1      19.5       0.0
 2 C  py              0.7       0.0       9.3       2.1       0.9       8.2
 2 C  dz2             0.0       0.0       0.1       0.1       0.0       0.3
 2 C  dxz             0.0       0.0       0.0       0.2       0.3       0.0
 2 C  dyz             0.0       0.0       0.1       0.0       0.0       0.3
 2 C  dx2y2           0.2       0.0       0.0       0.5       0.1       0.1
 3 C  s               0.2       0.3       0.0       0.8       0.2       0.0
 3 C  pz              6.6       3.5       1.8       5.4       0.2       0.2
 3 C  px              1.4       0.1       0.0       6.9       4.1       0.0
 3 C  py              2.2       0.3      14.3       0.9       0.0       0.6
 3 C  dz2             0.0       0.0       0.2       0.0       0.1       0.1
 3 C  dxz             0.0       0.0       0.0       0.1       0.2       0.0
 3 C  dyz             0.0       0.0       0.3       0.0       0.0       0.1
 3 C  dx2y2           0.3       0.0       0.1       0.1       0.1       0.0
 4 C  s               0.1       0.4       0.0       0.1       0.6       0.0
 4 C  pz              0.2       3.8       0.0       0.0       0.8       0.0
 4 C  px              1.5       0.3       0.0       0.1       1.6       0.0
 4 C  py              0.7       0.2       0.7       0.0       0.1       0.0
 4 C  dz2             0.0       0.7       0.1       0.0       0.0       0.1
 4 C  dxz             0.1       0.1       0.0       0.0       0.0       0.0
 4 C  dyz             0.0       0.1       0.3       0.0       0.0       0.2
 4 C  dx2y2           0.0       0.2       0.1       0.0       0.0       0.0
 5 O  s               0.1       0.6       0.0       0.0       0.1       0.0
 5 O  pz              1.3       6.5       0.9       0.0       0.8       0.3
 5 O  px              2.3       1.4       0.0       0.2       1.3       0.0
 5 O  py              1.2       0.8      10.6       0.1       0.0       4.4
 5 O  dz2             0.0       0.3       0.0       0.0       0.2       0.0
 5 O  dxz             0.1       0.0       0.0       0.0       0.0       0.0
 6 O  s               0.4       3.3       0.0       0.3       0.5       0.0
 6 O  pz              0.6      29.0       0.2       0.6       1.8       0.3
 6 O  px              0.2       0.6       0.0       0.5       0.8       0.0
 6 O  py              0.2       2.1       0.0       0.0       0.6       5.9
 6 O  dz2             0.0       0.7       0.0       0.1       0.3       0.0
 6 O  dxz             0.0       0.9       0.0       0.0       0.0       0.0
 6 O  dyz             0.0       0.1       0.1       0.0       0.0       0.1
 6 O  dx2y2           0.1       0.9       0.1       0.1       0.3       0.0
 6 O  dxy             0.1       0.0       0.0       0.0       0.0       0.2
 7 C  s               0.0       0.2       0.0       0.0       0.1       0.0
 7 C  pz              1.9      16.3       0.1       0.1       0.2       0.1
 7 C  px              0.1       0.2       0.0       0.3       0.7       0.0
 7 C  py              1.3       1.2       0.2       0.0       0.1       1.0
 7 C  dxz             0.0       0.4       0.0       0.0       0.0       0.0
 7 C  dx2y2           0.0       0.5       0.0       0.0       0.0       0.0
 8 H  s               6.0       0.4       5.5       1.5       1.1       4.8
 8 H  pz              0.0       0.0       0.1       0.0       0.0       0.0
 8 H  px              0.0       0.0       0.0       0.1       0.1       0.0
 8 H  py              0.2       0.0       0.0       0.1       0.0       0.0
 9 H  s               2.2       1.3       0.0       0.0      10.9       0.0
 9 H  px              0.1       0.0       0.0       0.1       0.0       0.0
 9 H  py              0.0       0.0       0.1       0.0       0.0       0.1
10 H  s               2.2       0.1       6.1       1.9       1.3       4.2
10 H  pz              0.1       0.0       0.1       0.1       0.0       0.0
10 H  px              0.0       0.0       0.0       0.1       0.1       0.0
11 H  s               0.3       0.1       1.3       3.8       1.3      11.2
11 H  pz              0.0       0.0       0.0       0.0       0.0       0.1
11 H  px              0.1       0.0       0.0       0.0       0.2       0.0
11 H  py              0.0       0.0       0.0       0.2       0.1       0.0
12 H  s               0.4       0.0       1.5       4.6       1.7       9.9
12 H  pz              0.0       0.0       0.0       0.1       0.0       0.1
12 H  px              0.1       0.0       0.0       0.0       0.2       0.0
[...]
 4 C  py              0.0       0.0       0.1       0.6       0.0       0.0
 4 C  dz2             0.2       0.0       0.0       5.2       0.0       0.0
 4 C  dxz             1.4       1.7       9.7       0.2       0.0       0.0
 4 C  dyz             0.0       0.0       0.1       1.3       0.0       0.0
 4 C  dx2y2           0.1       0.4       2.0       0.0       0.0       0.0
 4 C  dxy             0.2       0.1       0.5       0.0       0.0       0.0
 5 O  s               0.0       1.1       0.8      18.4       0.0       0.0
 5 O  pz              0.3       0.7       0.5      19.8       0.0       0.0
 5 O  px              1.8       0.2       0.2       0.2       0.0       0.0
 5 O  py              0.0       0.0       0.0       1.5       0.0       0.0
 5 O  dz2             0.4       1.6       0.1      26.3       0.0       0.0
 5 O  dxz             4.2       0.1       1.3       0.4       0.0       0.0
 5 O  dyz             0.1       0.3       0.2       6.5       0.0       0.0
 5 O  dx2y2           0.0       0.1       0.5       0.2       0.0       0.0
 5 O  dxy             0.2       0.0       0.1       0.0       0.0       0.0
 6 O  s               1.9      25.6       5.6       0.7       0.0       0.0
 6 O  pz              1.0       7.4       2.8       0.1       0.0       0.0
 6 O  px              0.1       5.8      28.1       0.9       0.0       0.0
 6 O  py              0.1       0.7       0.0       0.0       0.0       0.0
 6 O  dz2             0.7       1.2       0.2       0.1       0.0       0.0
 6 O  dxz             0.0       1.1      26.2       0.9       0.0       0.0
 6 O  dyz             0.2       0.8       0.1       0.0       0.0       0.0
 6 O  dx2y2           0.1      22.4       2.3       1.1       0.0       0.0
 6 O  dxy             0.0       0.6       1.5       0.1       0.0       0.0
 7 C  s               0.1       1.7       0.7       0.2       0.1       4.4
 7 C  pz              0.1       1.1       0.3       0.0       0.0       0.0
 7 C  px              0.0       6.5       1.8       0.4       0.0       0.0
 7 C  py              0.0       0.1       0.1       0.0       0.0       0.0
 7 C  dz2             0.1       0.9       0.3       0.0       0.0       0.0
 7 C  dxz             0.0       4.5       1.3       0.5       0.0       0.0
 7 C  dyz             0.0       0.2       0.0       0.0       0.0       0.0
 7 C  dx2y2           0.0       6.8       1.1       0.2       0.0       0.0
 7 C  dxy             0.0       0.8       0.2       0.0       0.0       0.0
 8 H  pz              0.1       0.0       0.0       0.0       0.0       0.0
 8 H  px              0.1       0.0       0.0       0.0       0.0       0.0
 9 H  pz              0.1       0.0       0.0       0.0       0.0       0.0
10 H  px              0.1       0.0       0.0       0.0       0.0       0.0
10 H  py              0.2       0.0       0.0       0.0       0.0       0.0
11 H  s               0.9       0.0       0.0       0.0       0.0       0.0
11 H  pz              1.5       0.0       0.0       0.0       0.0       0.0
11 H  py              1.2       0.0       0.0       0.0       0.0       0.0
12 H  s               0.9       0.0       0.0       0.0       0.0       0.0
12 H  py              2.7       0.0       0.0       0.0       0.0       0.0
13 H  s               1.9       0.0       0.0       0.0       0.0       0.0
13 H  py              5.7       0.0       0.0       0.0       0.0       0.0
14 H  s               2.1       0.0       0.0       0.0       0.0       0.0
14 H  pz              3.2       0.0       0.0       0.0       0.0       0.0
14 H  py              3.2       0.0       0.0       0.0       0.0       0.0
15 H  s               0.4       0.0       0.0       0.0       0.0       0.0
15 H  px              0.3       0.0       0.0       0.0       0.0       0.0
15 H  py              1.3       0.0       0.0       0.0       0.0       0.0
16 H  s               0.7       0.0       0.0       0.0       0.0       0.0
16 H  pz              1.1       0.0       0.0       0.0       0.0       0.0
16 H  px              0.2       0.0       0.0       0.0       0.0       0.0
16 H  py              0.8       0.0       0.0       0.0       0.0       0.0
17 H  s               0.0       0.2       0.1       0.1       0.0       0.0
17 H  pz              0.0       0.8       0.2       0.1       0.0       0.0
18 H  s               0.0       0.3       0.0       0.0       0.0       0.0
18 H  px              0.0       0.2       0.1       0.0       0.0       0.0
18 H  py              0.0       0.6       0.1       0.0       0.0       0.0
19 H  s               0.0       0.3       0.0       0.0       0.0       0.0
19 H  pz              0.0       0.2       0.0       0.0       0.0       0.0
19 H  px              0.0       0.1       0.0       0.0       0.0       0.0
19 H  py              0.0       0.5       0.1       0.0       0.0       0.0

                    216       217       218       219       220       221   
                  21.99990  22.01140  22.03684  22.24906  43.64181  43.71140
                   0.00000   0.00000   0.00000   0.00000   0.00000   0.00000
                  --------  --------  --------  --------  --------  --------
 0 C  s               2.8       1.9       9.1       0.0       0.0       0.0
 1 C  s               2.5      58.7       0.0       0.0       0.0       0.0
 2 C  s              12.0      14.1      42.3       1.1       0.0       0.0
 3 C  s               1.2      15.9      40.1       2.4       0.0       0.0
 4 C  s               1.3       0.0       4.0      93.6       0.0       0.0
 5 O  s               0.0       0.0       0.0       0.2      75.6      24.3
 5 O  pz              0.0       0.0       0.0       0.1       0.0       0.0
 6 O  s               0.1       0.0       0.0       0.1      24.3      75.6
 6 O  px              0.0       0.0       0.0       0.1       0.0       0.0
 7 C  s              79.8       9.2       4.1       2.1       0.0       0.0



                      *****************************
                      * MAYER POPULATION ANALYSIS *
                      *****************************

  NA   - Mulliken gross atomic population
  ZA   - Total nuclear charge
  QA   - Mulliken gross atomic charge
  VA   - Mayer's total valence
  BVA  - Mayer's bonded valence
  FA   - Mayer's free valence

  ATOM       NA         ZA         QA         VA         BVA        FA
  0 C      6.5105     6.0000    -0.5105     3.7725     3.7725     0.0000
  1 C      6.2421     6.0000    -0.2421     3.6368     3.6368    -0.0000
  2 C      6.3076     6.0000    -0.3076     3.7508     3.7508     0.0000
  3 C      6.2852     6.0000    -0.2852     3.7438     3.7438     0.0000
  4 C      5.6067     6.0000     0.3933     3.8561     3.8561     0.0000
  5 O      8.5029     8.0000    -0.5029     1.8931     1.8931     0.0000
  6 O      8.2002     8.0000    -0.2002     1.9667     1.9667     0.0000
  7 C      6.3306     6.0000    -0.3306     3.7561     3.7561    -0.0000
  8 H      0.8464     1.0000     0.1536     0.9610     0.9610     0.0000
  9 H      0.8423     1.0000     0.1577     0.9586     0.9586    -0.0000
 10 H      0.8464     1.0000     0.1536     0.9611     0.9611    -0.0000
 11 H      0.8526     1.0000     0.1474     0.9589     0.9589    -0.0000
 12 H      0.8518     1.0000     0.1482     0.9595     0.9595    -0.0000
 13 H      0.8432     1.0000     0.1568     0.9577     0.9577    -0.0000
 14 H      0.8439     1.0000     0.1561     0.9572     0.9572    -0.0000
 15 H      0.8077     1.0000     0.1923     0.9504     0.9504     0.0000
 16 H      0.8129     1.0000     0.1871     0.9534     0.9534     0.0000
 17 H      0.8217     1.0000     0.1783     0.9502     0.9502    -0.0000
 18 H      0.8231     1.0000     0.1769     0.9502     0.9502     0.0000
 19 H      0.8223     1.0000     0.1777     0.9489     0.9489     0.0000

  Mayer bond orders larger than 0.100000
B(  0-C ,  1-C ) :   0.8860 B(  0-C ,  8-H ) :   0.9812 B(  0-C ,  9-H ) :   0.9728 
B(  0-C , 10-H ) :   0.9808 B(  1-C ,  2-C ) :   0.9117 B(  1-C , 11-H ) :   0.9700 
B(  1-C , 12-H ) :   0.9748 B(  2-C ,  3-C ) :   0.9370 B(  2-C , 13-H ) :   0.9705 
B(  2-C , 14-H ) :   0.9698 B(  3-C ,  4-C ) :   1.0040 B(  3-C , 15-H ) :   0.9282 
B(  3-C , 16-H ) :   0.9421 B(  4-C ,  5-O ) :   1.7677 B(  4-C ,  6-O ) :   1.1006 
B(  6-O ,  7-C ) :   0.8287 B(  7-C , 17-H ) :   0.9597 B(  7-C , 18-H ) :   0.9590 
B(  7-C , 19-H ) :   0.9568 

-------
TIMINGS
-------

Total SCF time: 0 days 0 hours 0 min 29 sec 

Total time                  ....      29.965 sec
Sum of individual times     ....      29.462 sec  ( 98.3%)

SCF preparation             ....       0.331 sec  (  1.1%)
Fock matrix formation       ....      28.141 sec  ( 93.9%)
  Startup                   ....       0.067 sec  (  0.2% of F)
  Split-RI-J                ....       4.512 sec  ( 16.0% of F)
  XC integration            ....      18.025 sec  ( 64.0% of F)
    Basis function eval.    ....       3.289 sec  ( 18.2% of XC)
    Density eval.           ....       5.418 sec  ( 30.1% of XC)
    XC-Functional eval.     ....       2.463 sec  ( 13.7% of XC)
    XC-Potential eval.      ....       5.812 sec  ( 32.2% of XC)
  CPCM terms                ....       4.940 sec  ( 17.6% of F)
Diagonalization             ....       0.000 sec  (  0.0%)
Density matrix formation    ....       0.252 sec  (  0.8%)
Total Energy calculation    ....       0.044 sec  (  0.1%)
Population analysis         ....       0.127 sec  (  0.4%)
Orbital Transformation      ....       0.077 sec  (  0.3%)
Orbital Orthonormalization  ....       0.000 sec  (  0.0%)
DIIS solution               ....       0.430 sec  (  1.4%)
  MO trafo                  ....       0.000 sec  (  0.0 % of DIIS)
  Orb grad                  ....       0.000 sec  (  0.0 % of DIIS)
  Energy W gradient         ....       0.000 sec  (  0.0 % of DIIS)
  DIIS error                ....       0.015 sec  (  3.4 % of DIIS)
  DIIS work                 ....       0.349 sec  ( 81.1 % of DIIS)
  Form Q                    ....       0.000 sec  (  0.0 % of DIIS)
  Form QpQm                 ....       0.000 sec  (  0.0 % of DIIS)
  Exp/Cayley                ....       0.000 sec  (  0.0 % of DIIS)
  Orb update                ....       0.000 sec  (  0.0 % of DIIS)
  Wake-sleep                ....       0.020 sec  (  4.6 % of DIIS)
SOSCF solution              ....       0.057 sec  (  0.2%)
  MO trafo                  ....       0.042 sec  ( 74.0 % of SOSCF)
  Orb grad                  ....       0.001 sec  (  1.1 % of SOSCF)
  Rot update                ....       0.000 sec  (  0.1 % of SOSCF)
  Step                      ....       0.014 sec  ( 24.6 % of SOSCF)
Finished LeanSCF after  30.1 sec

Maximum memory used throughout the entire LEANSCF-calculation: 30.1 MB


-------------------------------------------------------------------------------
                          DFT DISPERSION CORRECTION                            
                                                                               
                                DFTD4 V3.4.0                                   
-------------------------------------------------------------------------------
The R2SCAN3C composite method is recognized
Using three-body term ABC
Active option DFTDOPT                   ...         5   

-------------------------   ----------------
Dispersion correction           -0.004854870
-------------------------   ----------------

------------------   -----------------
gCP correction             0.011890445
------------------   -----------------

-------------------------   --------------------
FINAL SINGLE POINT ENERGY      -386.236914909514
-------------------------   --------------------


------------------------------------------------------------------------------
                              ORCA PROPERTY CALCULATIONS
------------------------------------------------------------------------------

GBWName                                 ... sp_solv.gbw
Number of atoms                         ...     20
Number of basis functions               ...    222
Max core memory                         ...   1024 MB

Electric properties:
Dipole moment                           ... YES
Quadrupole moment                       ...  NO
Static polarizability (Dipole/Dipole)   ...  NO
Static polarizability (Dipole/Quad.)    ...  NO
Static polarizability (Quad./Quad.)     ...  NO
Static polarizability (Velocity)        ...  NO

Atomic electric properties:
Dipole moment                           ...  NO
Quadrupole moment                       ...  NO
Static polarizability                   ...  NO

Choice of electric origin               ... Center of mass
Position of electric origin             ...    -0.000038    -0.000002     0.000006

General magnetic properties:
Magnetizability                         ...  NO

EPR properties:
g-Tensor (aka g-matrix)                 ...  NO
Zero-Field splitting spin-orbit         ...  NO
Zero-field splitting spin-spin          ...  NO
Hyperfine couplings                     ...  NO (   0 nuclei)
Quadrupole couplings                    ...  NO (   0 nuclei)
Contact density                         ...  NO (   0 nuclei)

NMR properties:
Chemical shifts                         ...  NO (   0 nuclei)
Spin-rotation constants                 ...  NO (   0 nuclei)
Spin-spin couplings                     ...  NO (   0 nuclei,    0 pairs)

Choice of magnetic origin               ... GIAO
Position of magnetic origin             ...     0.000000     0.000000     0.000000

Properties with geometric perturbations:
SCF Hessian                             ...  NO
IR spectrum                             ...  NO
VCD spectrum                            ...  NO
X-ray spectroscopy properties:
SCF XES/XAS/RIXS spectra                ...  NO


-------------
DIPOLE MOMENT
-------------

Method             : SCF
Type of density    : Electron Density
Multiplicity       :   1
Irrep              :   0
Energy             :  -386.2439504839185247 Eh
Relativity type    : 
Basis              : AO
                                X                 Y                 Z
Electronic contribution:      9.472005473       0.114810257      -0.379220919
Nuclear contribution   :     -9.253143837      -0.403485029       1.415482210
                        -----------------------------------------
Total Dipole Moment    :      0.218861636      -0.288674772       1.036261291
                        -----------------------------------------
Magnitude (a.u.)       :      1.097757260
Magnitude (Debye)      :      2.790277209



--------------------
Rotational spectrum 
--------------------
 
Rotational constants in cm-1:             0.252787             0.024842             0.023125 
Rotational constants in MHz :          7578.372097           744.749389           693.275303 

Dipole components along the rotational axes: 
x,y,z [a.u.] :     0.217974    -1.075747     0.018076 
x,y,z [Debye]:     0.554045    -2.734332     0.045946 

 

Dipole moment calculation done in   0.0 sec 

Maximum memory used throughout the entire PROP-calculation: 13.4 MB

--------------------------------
SUGGESTED CITATIONS FOR THIS RUN
--------------------------------

Below you find a list of papers that are relevant to this ORCA run
We neither can nor want to force you to cite these papers, but we appreciate if you do
You receive ORCA, which is the product of decades of hard work by many enthusiastic individuals, for free
The only thing we kindly ask in return is that you cite our papers,
We deeply appreciate it, if you show your appreciation for ORCA by not just citing the generic ORCA reference.

Please note that relegating all ORCA citations to the supporting information does *not* help us.
SI sections are not indexed - citations you put there will not count into any citation statistics
But we need these citations in order to attract the funding resources that allow us to do what we are doing

Therefore, if you are a happy ORCA user, please consider citing a few of the papers listed below in the main body of your paper

In addition to the list printed below, the program has created the file sp_solv.bibtex that contains the list in bibtex format
You can import this file easily into all common literature databanks and citation aid programs


List of essential papers. We consider these as the minimum necessary citations

  1. Neese,F.
     Software update: the ORCA program system, version 5.0
     WIRES Comput. Molec. Sci., 2022 12(1)e1606
     doi.org/10.1002/wcms.1606
  2. Grimme,S.; Hansen,A.; Ehlert,S.; Mewes,J.
     r2SCAN-3c: A 'Swiss army knife' composite electronic-structure method
     J. Chem. Phys., 2021 154 064103
     doi.org/10.1063/5.0040021

List of papers to cite with high priority. The work reported in these papers was absolutely
necessary for this run to complete.
Our perspective: the developers of density functionals and basis sets usually get cited in chemistry papers
Good! But without the algorithms to do something with them, the functionals or basis sets would not do anything.
Hence, in our opinion, the algorithm design and method developments papers are equally worthy of getting cited

  1. Neese,F.
     An improvement of the resolution of the identity approximation for the formation of the Coulomb matrix
     J. Comp. Chem., 2003 24(14)1740-1747
     doi.org/10.1002/jcc.10318
  2. Garcia-Rates,M.; Neese,F.
     Effect of the Solute Cavity on the Solvation Energy and its Derivatives within the Framework of the Gaussian Charge Scheme
     J. Comput. Chem., 2020 41 922-939
     doi.org/10.1002/jcc.26139
  3. Neese,F.
     The SHARK Integral Generation and Digestion System
     J. Comp. Chem., 2022  1-16
     doi.org/10.1002/jcc.26942
  4. Lehtola,S.; Steigemann,C.; Oliveira,M.; Marques,M.
     Recent developments in Libxc - A comprehensive library of functionals for density functional theory
     Software X, 2018 7 
     doi.org/10.1016/j.softx.2017.11.002
  5. Caldeweyher,E.; Bannwarth,C.; Grimme,S.
     Extension of the D3 dispersion coefficient model
     J. Chem. Phys., 2017 147 034112-XXXX
     doi.org/10.1063/1.4993215
  6. Caldeweyher,E.; Ehlert,S.; Hansen,A.; Neugebauer,H.; Spicher,S.; Bannwarth,C.; Grimme,S.
     A generally applicable atomic-charge dependent London dispersion correction
     J. Chem. Phys., 2019 150 154122-XXXX
     doi.org/10.1063/1.5090222
  7. Caldeweyher,E.; Mewes,J.; Ehlert,S.; Grimme,S.
     Extension and evaluation of the D4 London-dispersion model for periodic systems
     Phys. Chem. Chem. Phys., 2020 22(16)8499-8512
     doi.org/10.1039/D0CP00502A

List of suggested additional citations. These are papers that are important in the 'surrounding' of 
of this run, or papers that preceded the highly important papers. If you like your results we are grateful for a citation.

  1. Neese,F.
     The ORCA program system
     WIRES Comput. Molec. Sci., 2012 2(1)73-78
     doi.org/10.1002/wcms.81
  2. Neese,F.
     Software update: the ORCA program system, version 4.0
     WIRES Comput. Molec. Sci., 2018 8(1)1-6
     doi.org/10.1002/wcms.1327
  3. Neese,F.; Wennmohs,F.; Becker,U.; Riplinger,C.
     The ORCA quantum chemistry program package
     J. Chem. Phys., 2020 152 Art. No. L224108
     doi.org/10.1063/5.0004608

List of optional additional citations

  1. Neese,F.
     Approximate second-order SCF convergence for spin unrestricted wavefunctions
     Chem. Phys. Lett., 2000 325(1-3)93-98
     doi.org/10.1016/s0009-2614(00)00662-x

Timings for individual modules:

Sum of individual times          ...       31.747 sec (=   0.529 min)
Startup calculation              ...        1.213 sec (=   0.020 min)   3.8 %
SCF iterations                   ...       30.424 sec (=   0.507 min)  95.8 %
Property calculations            ...        0.110 sec (=   0.002 min)   0.3 %
                             ****ORCA TERMINATED NORMALLY****
TOTAL RUN TIME: 0 days 0 hours 0 minutes 32 seconds 488 msec
