      -----------------------------------------------------------      
     |                   =====================                   |     
     |                           x T B                           |     
     |                   =====================                   |     
     |                         S. Grimme                         |     
     |          Mulliken Center for Theoretical Chemistry        |     
     |                    University of Bonn                     |     
      -----------------------------------------------------------      

   * xtb version 6.7.1 (edcfbbe) compiled by 'albert@albert-system' on 2024-07-22

   xtb is free software: you can redistribute it and/or modify it under
   the terms of the GNU Lesser General Public License as published by
   the Free Software Foundation, either version 3 of the License, or
   (at your option) any later version.
   
   xtb is distributed in the hope that it will be useful,
   but WITHOUT ANY WARRANTY; without even the implied warranty of
   MERCHANTABILITY or FITNESS FOR A PARTICULAR PURPOSE.  See the
   GNU Lesser General Public License for more details.
   
   Cite this work as:
   * C. Bannwarth, E. Caldeweyher, S. Ehlert, A. Hansen, P. Pracht,
     J. Seibert, S. Spicher, S. Grimme, WIREs Comput. Mol. Sci., 2020, 11,
     e01493. DOI: 10.1002/wcms.1493
   
   for GFN2-xTB:
   * C. Bannwarth, S. Ehlert and S. Grimme., J. Chem. Theory Comput., 2019,
     15, 1652-1671. DOI: 10.1021/acs.jctc.8b01176
   for GFN1-xTB:
   * S. Grimme, C. Bannwarth, P. Shushkov, J. Chem. Theory Comput., 2017,
     13, 1989-2009. DOI: 10.1021/acs.jctc.7b00118
   for GFN0-xTB:
   * P. Pracht, E. Caldeweyher, S. Ehlert, S. Grimme, ChemRxiv, 2019, preprint.
     DOI: 10.26434/chemrxiv.8326202.v1
   for GFN-FF:
   * S. Spicher and S. Grimme, Angew. Chem. Int. Ed., 2020, 59, 15665-15673.
     DOI: 10.1002/anie.202004239
   
   for ALPB and GBSA implicit solvation:
   * S. Ehlert, M. Stahn, S. Spicher, S. Grimme, J. Chem. Theory Comput.,
     2021, 17, 4250-4261. DOI: 10.1021/acs.jctc.1c00471
   
   for ddCOSMO and CPCM-X implicit solvation:
   * M. Stahn, S. Ehlert, S. Grimme, J. Phys. Chem. A,
     2023, XX, XXXX-XXXX. DOI: 10.1021/acs.jpca.3c04382
   
   for DFT-D4:
   * E. Caldeweyher, C. Bannwarth and S. Grimme, J. Chem. Phys., 2017,
     147, 034112. DOI: 10.1063/1.4993215
   * E. Caldeweyher, S. Ehlert, A. Hansen, H. Neugebauer, S. Spicher,
     C. Bannwarth and S. Grimme, J. Chem. Phys., 2019, 150, 154122.
     DOI: 10.1063/1.5090222
   * E. Caldeweyher, J.-M. Mewes, S. Ehlert and S. Grimme, Phys. Chem. Chem. Phys.
     2020, 22, 8499-8512. DOI: 10.1039/D0CP00502A
   
   for sTDA-xTB:
   * S. Grimme and C. Bannwarth, J. Chem. Phys., 2016, 145, 054103.
     DOI: 10.1063/1.4959605
   
   in the mass-spec context:
   * V. Asgeirsson, C. Bauer and S. Grimme, Chem. Sci., 2017, 8, 4879.
     DOI: 10.1039/c7sc00601b
   * J. Koopman and S. Grimme, ACS Omega 2019, 4, 12, 15120-15133.
     DOI: 10.1021/acsomega.9b02011
   
   for metadynamics refer to:
   * S. Grimme, J. Chem. Theory Comput., 2019, 155, 2847-2862
     DOI: 10.1021/acs.jctc.9b00143
   
   for SPH calculations refer to:
   * S. Spicher and S. Grimme, J. Chem. Theory Comput., 2021, 17, 1701-1714
     DOI: 10.1021/acs.jctc.0c01306
   
   for ONIOM refer to:
   * C. Plett, A. Katbashev, S. Ehlert, S. Grimme, M. Bursch,
     Phys. Chem. Chem. Phys., 2023, 25, 17860-17868. DOI: 10.1039/D3CP02178E
   
   for DIPRO refer to:
   * J. Kohn, N. Gildemeister, S. Grimme, D. Fazzi, A. Hansen,
     J. Chem. Phys., 2023, just accepted.
   
   for PTB refer to:
   * S. Grimme, M. Mueller, A. Hansen, J. Chem. Phys., 2023, 158, 124111.
     DOI: 10.1063/5.0137838
   
   with help from (in alphabetical order)
   P. Atkinson, C. Bannwarth, F. Bohle, G. Brandenburg, E. Caldeweyher
   M. Checinski, S. Dohm, S. Ehlert, S. Ehrlich, I. Gerasimov, C. Hölzer
   A. Katbashev, J. Kohn, J. Koopman, C. Lavigne, S. Lehtola, F. März, M. Müller,
   F. Musil, H. Neugebauer, J. Pisarek, C. Plett, P. Pracht, F. Pultar,
   J. Seibert, P. Shushkov, S. Spicher, M. Stahn, M. Steiner, T. Strunk,
   J. Stückrath, T. Rose, and J. Unsleber
   
 * started run on 2025/04/11 at 15:54:36.286     
   ID    Z sym.   atoms
    1    6 C      1-5
    2   17 Cl     6
    3    1 H      7-17

           -------------------------------------------------
          |                Calculation Setup                |
           -------------------------------------------------

          program call               : /srv/scratch/z5358697/.xtb/bin/xtb solv.coord --gfn2 --sp --chrg 0 --norestart --parallel 1 --alpb water reference -I xtb_sp-xcontrol-inp
          hostname                   : k124
          coordinate file            : solv.coord
          omp threads                :                     1


           -------------------------------------------------
          |                 G F N 2 - x T B                 |
           -------------------------------------------------

        Reference                      10.1021/acs.jctc.8b01176
      * Hamiltonian:
        H0-scaling (s, p, d)           1.850000    2.230000    2.230000
        zeta-weighting                 0.500000
      * Dispersion:
        s8                             2.700000
        a1                             0.520000
        a2                             5.000000
        s9                             5.000000
      * Repulsion:
        kExp                           1.500000    1.000000
        rExp                           1.000000
      * Coulomb:
        alpha                          2.000000
        third order                    shell-resolved
        anisotropic                    true
        a3                             3.000000
        a5                             4.000000
        cn-shift                       1.200000
        cn-exp                         4.000000
        max-rad                        5.000000

      * Solvation model:               ALPB
        Solvent                        water
        Parameter file                 internal GFN2-xTB/ALPB
        Dielectric constant                8.0200E+01
        Reference state                gsolv=reference [X=1]
        Free energy shift                  2.8945E-03 Eh       1.8164E+00 kcal/mol
        Temperature                        2.9815E+02 K
        Density                            1.0000E+00 kg/L
        Solvent mass                       1.8000E+01 g/mol
        Interaction kernel             P16
        Born radius scaling (c1)           1.4744E+00
        Born radii integrator          GBOBC
        Born offset                        0.0000E+00 a0       0.0000E+00 AA
        H-bond correction              true
        Ion screening                  false
        Surface tension                    1.0000E-05 Eh       1.5569E+01 dyn/cm
        Grid points                               974 per atom

          ...................................................
          :                      SETUP                      :
          :.................................................:
          :  # basis functions                  41          :
          :  # atomic orbitals                  40          :
          :  # shells                           24          :
          :  # electrons                        38          :
          :  max. iterations                   250          :
          :  Hamiltonian                  GFN2-xTB          :
          :  restarted?                      false          :
          :  GBSA solvation                   true          :
          :  PC potential                    false          :
          :  electronic temp.          300.0000000     K    :
          :  accuracy                    1.0000000          :
          :  -> integral cutoff          0.2500000E+02      :
          :  -> integral neglect         0.1000000E-07      :
          :  -> SCF convergence          0.1000000E-05 Eh   :
          :  -> wf. convergence          0.1000000E-03 e    :
          :  Broyden damping             0.4000000          :
          :  net charge                          0          :
          :  unpaired electrons                  0          :
          ...................................................

 iter      E             dE          RMSdq      gap      omega  full diag
   1    -21.0716804 -0.210717E+02  0.321E+00    7.23       0.0  T
   2    -21.1159155 -0.442351E-01  0.177E+00    6.92       1.0  T
   3    -21.1168798 -0.964289E-03  0.839E-01    6.99       1.0  T
   4    -21.1170844 -0.204618E-03  0.124E-01    6.92       1.0  T
   5    -21.1171361 -0.516754E-04  0.565E-02    6.94       1.0  T
   6    -21.1171374 -0.130445E-05  0.173E-02    6.93       1.4  T
   7    -21.1171381 -0.657627E-06  0.833E-03    6.93       2.9  T
   8    -21.1171384 -0.284791E-06  0.632E-03    6.93       3.8  T
   9    -21.1171388 -0.401858E-06  0.204E-03    6.93      11.9  T
  10    -21.1171388 -0.214506E-07  0.601E-04    6.93      40.4  T
  11    -21.1171388 -0.176308E-08  0.359E-04    6.93      67.6  T

   *** convergence criteria satisfied after 11 iterations ***

         #    Occupation            Energy/Eh            Energy/eV
      -------------------------------------------------------------
         1        2.0000           -1.0554841             -28.7212
       ...           ...                  ...                  ...
        13        2.0000           -0.4607656             -12.5381
        14        2.0000           -0.4391052             -11.9487
        15        2.0000           -0.4383285             -11.9275
        16        2.0000           -0.4320959             -11.7579
        17        2.0000           -0.4209259             -11.4540
        18        2.0000           -0.4155826             -11.3086
        19        2.0000           -0.4121870             -11.2162 (HOMO)
        20                         -0.1576802              -4.2907 (LUMO)
        21                          0.0155468               0.4231
        22                          0.0210820               0.5737
        23                          0.0252834               0.6880
        24                          0.0254761               0.6932
       ...                                ...                  ...
        40                          0.3142710               8.5518
      -------------------------------------------------------------
                  HL-Gap            0.2545068 Eh            6.9255 eV
             Fermi-level           -0.2849336 Eh           -7.7534 eV

 SCC (total)                   0 d,  0 h,  0 min,  0.032 sec
 SCC setup                      ...        0 min,  0.001 sec (  3.245%)
 Dispersion                     ...        0 min,  0.000 sec (  0.250%)
 classical contributions        ...        0 min,  0.000 sec (  0.060%)
 integral evaluation            ...        0 min,  0.021 sec ( 66.897%)
 iterations                     ...        0 min,  0.005 sec ( 16.447%)
 molecular gradient             ...        0 min,  0.004 sec ( 12.543%)
 printout                       ...        0 min,  0.000 sec (  0.513%)

         :::::::::::::::::::::::::::::::::::::::::::::::::::::
         ::                     SUMMARY                     ::
         :::::::::::::::::::::::::::::::::::::::::::::::::::::
         :: total energy             -20.872792493394 Eh    ::
         :: total w/o Gsasa/hb       -20.873956825736 Eh    ::
         :: gradient norm              0.000081769636 Eh/a0 ::
         :: HOMO-LUMO gap              6.925483267048 eV    ::
         ::.................................................::
         :: SCC energy               -21.117125324044 Eh    ::
         :: -> isotropic ES            0.011450348431 Eh    ::
         :: -> anisotropic ES          0.002566846796 Eh    ::
         :: -> anisotropic XC          0.011411149136 Eh    ::
         :: -> dispersion             -0.009685822177 Eh    ::
         :: -> Gsolv                  -0.002270014982 Eh    ::
         ::    -> Gelec               -0.003434347325 Eh    ::
         ::    -> Gsasa               -0.000799663440 Eh    ::
         ::    -> Ghb                 -0.000930553378 Eh    ::
         ::    -> Gshift               0.002894549160 Eh    ::
         :: repulsion energy           0.244332830650 Eh    ::
         :: add. restraining           0.000000000000 Eh    ::
         :: total charge               0.000000000000 e     ::
         :::::::::::::::::::::::::::::::::::::::::::::::::::::

           -------------------------------------------------
          |                Property Printout                |
           -------------------------------------------------

    * Orbital Energies and Occupations

         #    Occupation            Energy/Eh            Energy/eV
      -------------------------------------------------------------
         1        2.0000           -1.0554841             -28.7212
       ...           ...                  ...                  ...
         7        2.0000           -0.5271054             -14.3433
         8        2.0000           -0.5180143             -14.0959
         9        2.0000           -0.5033830             -13.6977
        10        2.0000           -0.5002786             -13.6133
        11        2.0000           -0.4823804             -13.1262
        12        2.0000           -0.4707893             -12.8108
        13        2.0000           -0.4607656             -12.5381
        14        2.0000           -0.4391052             -11.9487
        15        2.0000           -0.4383285             -11.9275
        16        2.0000           -0.4320959             -11.7579
        17        2.0000           -0.4209259             -11.4540
        18        2.0000           -0.4155826             -11.3086
        19        2.0000           -0.4121870             -11.2162 (HOMO)
        20                         -0.1576802              -4.2907 (LUMO)
        21                          0.0155468               0.4231
        22                          0.0210820               0.5737
        23                          0.0252834               0.6880
        24                          0.0254761               0.6932
        25                          0.0613710               1.6700
        26                          0.1016125               2.7650
        27                          0.1179799               3.2104
        28                          0.1299056               3.5349
        29                          0.1421843               3.8690
        30                          0.1583983               4.3102
       ...                                ...                  ...
        40                          0.3142710               8.5518
      -------------------------------------------------------------
                  HL-Gap            0.2545068 Eh            6.9255 eV
             Fermi-level           -0.2849336 Eh           -7.7534 eV

     #   Z          covCN         q      C6AA      α(0)
     1   6 C        3.752    -0.112    22.699     6.794
     2   6 C        3.801    -0.059    21.641     6.623
     3   6 C        3.803    -0.063    21.713     6.634
     4   6 C        3.825    -0.070    21.811     6.646
     5   6 C        3.713     0.025    20.287     6.436
     6  17 Cl       0.910    -0.266   107.606    15.870
     7   1 H        0.925     0.039     2.464     2.455
     8   1 H        0.925     0.038     2.473     2.459
     9   1 H        0.925     0.036     2.504     2.475
    10   1 H        0.924     0.033     2.541     2.493
    11   1 H        0.924     0.036     2.504     2.475
    12   1 H        0.924     0.039     2.461     2.453
    13   1 H        0.924     0.040     2.453     2.449
    14   1 H        0.924     0.064     2.151     2.293
    15   1 H        0.924     0.057     2.237     2.339
    16   1 H        0.925     0.082     1.956     2.187
    17   1 H        0.925     0.082     1.963     2.191

 Mol. C6AA /au·bohr⁶  :       2535.817068
 Mol. C8AA /au·bohr⁸  :      62578.444221
 Mol. α(0) /au        :         75.271950


Wiberg/Mayer (AO) data.
largest (>0.10) Wiberg bond orders for each atom

 ---------------------------------------------------------------------------
     #   Z sym  total        # sym  WBO       # sym  WBO       # sym  WBO
 ---------------------------------------------------------------------------
     1   6 C    3.996 --     2 C    1.019     9 H    0.988     8 H    0.988
                             7 H    0.987
     2   6 C    3.997 --     1 C    1.019     3 C    1.008    10 H    0.978
                            11 H    0.978
     3   6 C    3.996 --     2 C    1.008     4 C    1.007    13 H    0.977
                            12 H    0.976
     4   6 C    3.991 --     5 C    1.020     3 C    1.007    15 H    0.974
                            14 H    0.964
     5   6 C    3.911 --     4 C    1.020    16 H    0.977    17 H    0.976
                             6 Cl   0.918
     6  17 Cl   0.962 --     5 C    0.918
     7   1 H    0.998 --     1 C    0.987
     8   1 H    0.999 --     1 C    0.988
     9   1 H    0.999 --     1 C    0.988
    10   1 H    0.999 --     2 C    0.978
    11   1 H    0.999 --     2 C    0.978
    12   1 H    0.998 --     3 C    0.976
    13   1 H    0.998 --     3 C    0.977
    14   1 H    0.996 --     4 C    0.964
    15   1 H    0.997 --     4 C    0.974
    16   1 H    0.993 --     5 C    0.977
    17   1 H    0.993 --     5 C    0.976
 ---------------------------------------------------------------------------

Topologies differ in total number of bonds
Writing topology from bond orders to xtbtopo.mol

molecular dipole:
                 x           y           z       tot (Debye)
 q only:        0.653       0.937      -0.230
   full:        0.529       0.840      -0.222       2.585
molecular quadrupole (traceless):
                xx          xy          yy          xz          yz          zz
 q only:       -3.123      -4.163       2.041       1.159      -0.201       1.082
  q+dip:       -3.801      -3.713       1.564       0.943      -0.489       2.237
   full:       -3.414      -3.504       2.020       0.938      -0.551       1.394


           -------------------------------------------------
          | TOTAL ENERGY              -20.872792493394 Eh   |
          | GRADIENT NORM               0.000081769636 Eh/α |
          | HOMO-LUMO GAP               6.925483267048 eV   |
           -------------------------------------------------

------------------------------------------------------------------------
 * finished run on 2025/04/11 at 15:54:36.358     
------------------------------------------------------------------------
 total:
 * wall-time:     0 d,  0 h,  0 min,  0.072 sec
 *  cpu-time:     0 d,  0 h,  0 min,  0.021 sec
 * ratio c/w:     0.290 speedup
 SCF:
 * wall-time:     0 d,  0 h,  0 min,  0.032 sec
 *  cpu-time:     0 d,  0 h,  0 min,  0.013 sec
 * ratio c/w:     0.403 speedup

