      -----------------------------------------------------------      
     |                   =====================                   |     
     |                           x T B                           |     
     |                   =====================                   |     
     |                         S. Grimme                         |     
     |          Mulliken Center for Theoretical Chemistry        |     
     |                    University of Bonn                     |     
      -----------------------------------------------------------      

   * xtb version 6.7.1 (edcfbbe) compiled by 'albert@albert-system' on 2024-07-22

   xtb is free software: you can redistribute it and/or modify it under
   the terms of the GNU Lesser General Public License as published by
   the Free Software Foundation, either version 3 of the License, or
   (at your option) any later version.
   
   xtb is distributed in the hope that it will be useful,
   but WITHOUT ANY WARRANTY; without even the implied warranty of
   MERCHANTABILITY or FITNESS FOR A PARTICULAR PURPOSE.  See the
   GNU Lesser General Public License for more details.
   
   Cite this work as:
   * C. Bannwarth, E. Caldeweyher, S. Ehlert, A. Hansen, P. Pracht,
     J. Seibert, S. Spicher, S. Grimme, WIREs Comput. Mol. Sci., 2020, 11,
     e01493. DOI: 10.1002/wcms.1493
   
   for GFN2-xTB:
   * C. Bannwarth, S. Ehlert and S. Grimme., J. Chem. Theory Comput., 2019,
     15, 1652-1671. DOI: 10.1021/acs.jctc.8b01176
   for GFN1-xTB:
   * S. Grimme, C. Bannwarth, P. Shushkov, J. Chem. Theory Comput., 2017,
     13, 1989-2009. DOI: 10.1021/acs.jctc.7b00118
   for GFN0-xTB:
   * P. Pracht, E. Caldeweyher, S. Ehlert, S. Grimme, ChemRxiv, 2019, preprint.
     DOI: 10.26434/chemrxiv.8326202.v1
   for GFN-FF:
   * S. Spicher and S. Grimme, Angew. Chem. Int. Ed., 2020, 59, 15665-15673.
     DOI: 10.1002/anie.202004239
   
   for ALPB and GBSA implicit solvation:
   * S. Ehlert, M. Stahn, S. Spicher, S. Grimme, J. Chem. Theory Comput.,
     2021, 17, 4250-4261. DOI: 10.1021/acs.jctc.1c00471
   
   for ddCOSMO and CPCM-X implicit solvation:
   * M. Stahn, S. Ehlert, S. Grimme, J. Phys. Chem. A,
     2023, XX, XXXX-XXXX. DOI: 10.1021/acs.jpca.3c04382
   
   for DFT-D4:
   * E. Caldeweyher, C. Bannwarth and S. Grimme, J. Chem. Phys., 2017,
     147, 034112. DOI: 10.1063/1.4993215
   * E. Caldeweyher, S. Ehlert, A. Hansen, H. Neugebauer, S. Spicher,
     C. Bannwarth and S. Grimme, J. Chem. Phys., 2019, 150, 154122.
     DOI: 10.1063/1.5090222
   * E. Caldeweyher, J.-M. Mewes, S. Ehlert and S. Grimme, Phys. Chem. Chem. Phys.
     2020, 22, 8499-8512. DOI: 10.1039/D0CP00502A
   
   for sTDA-xTB:
   * S. Grimme and C. Bannwarth, J. Chem. Phys., 2016, 145, 054103.
     DOI: 10.1063/1.4959605
   
   in the mass-spec context:
   * V. Asgeirsson, C. Bauer and S. Grimme, Chem. Sci., 2017, 8, 4879.
     DOI: 10.1039/c7sc00601b
   * J. Koopman and S. Grimme, ACS Omega 2019, 4, 12, 15120-15133.
     DOI: 10.1021/acsomega.9b02011
   
   for metadynamics refer to:
   * S. Grimme, J. Chem. Theory Comput., 2019, 155, 2847-2862
     DOI: 10.1021/acs.jctc.9b00143
   
   for SPH calculations refer to:
   * S. Spicher and S. Grimme, J. Chem. Theory Comput., 2021, 17, 1701-1714
     DOI: 10.1021/acs.jctc.0c01306
   
   for ONIOM refer to:
   * C. Plett, A. Katbashev, S. Ehlert, S. Grimme, M. Bursch,
     Phys. Chem. Chem. Phys., 2023, 25, 17860-17868. DOI: 10.1039/D3CP02178E
   
   for DIPRO refer to:
   * J. Kohn, N. Gildemeister, S. Grimme, D. Fazzi, A. Hansen,
     J. Chem. Phys., 2023, just accepted.
   
   for PTB refer to:
   * S. Grimme, M. Mueller, A. Hansen, J. Chem. Phys., 2023, 158, 124111.
     DOI: 10.1063/5.0137838
   
   with help from (in alphabetical order)
   P. Atkinson, C. Bannwarth, F. Bohle, G. Brandenburg, E. Caldeweyher
   M. Checinski, S. Dohm, S. Ehlert, S. Ehrlich, I. Gerasimov, C. Hölzer
   A. Katbashev, J. Kohn, J. Koopman, C. Lavigne, S. Lehtola, F. März, M. Müller,
   F. Musil, H. Neugebauer, J. Pisarek, C. Plett, P. Pracht, F. Pultar,
   J. Seibert, P. Shushkov, S. Spicher, M. Stahn, M. Steiner, T. Strunk,
   J. Stückrath, T. Rose, and J. Unsleber
   
 * started run on 2025/04/11 at 15:53:55.396     
   ID    Z sym.   atoms
    1    6 C      1-4, 7, 8
    2    8 O      5, 6
    3    1 H      9-20

           -------------------------------------------------
          |                Calculation Setup                |
           -------------------------------------------------

          program call               : /srv/scratch/z5358697/.xtb/bin/xtb gas.coord --gfn2 --sp --chrg 0 --norestart --parallel 1
          hostname                   : k061
          coordinate file            : gas.coord
          omp threads                :                     1


           -------------------------------------------------
          |                 G F N 2 - x T B                 |
           -------------------------------------------------

        Reference                      10.1021/acs.jctc.8b01176
      * Hamiltonian:
        H0-scaling (s, p, d)           1.850000    2.230000    2.230000
        zeta-weighting                 0.500000
      * Dispersion:
        s8                             2.700000
        a1                             0.520000
        a2                             5.000000
        s9                             5.000000
      * Repulsion:
        kExp                           1.500000    1.000000
        rExp                           1.000000
      * Coulomb:
        alpha                          2.000000
        third order                    shell-resolved
        anisotropic                    true
        a3                             3.000000
        a5                             4.000000
        cn-shift                       1.200000
        cn-exp                         4.000000
        max-rad                        5.000000


          ...................................................
          :                      SETUP                      :
          :.................................................:
          :  # basis functions                  44          :
          :  # atomic orbitals                  44          :
          :  # shells                           28          :
          :  # electrons                        48          :
          :  max. iterations                   250          :
          :  Hamiltonian                  GFN2-xTB          :
          :  restarted?                      false          :
          :  GBSA solvation                  false          :
          :  PC potential                    false          :
          :  electronic temp.          300.0000000     K    :
          :  accuracy                    1.0000000          :
          :  -> integral cutoff          0.2500000E+02      :
          :  -> integral neglect         0.1000000E-07      :
          :  -> SCF convergence          0.1000000E-05 Eh   :
          :  -> wf. convergence          0.1000000E-03 e    :
          :  Broyden damping             0.4000000          :
          :  net charge                          0          :
          :  unpaired electrons                  0          :
          ...................................................

 iter      E             dE          RMSdq      gap      omega  full diag
   1    -27.3543521 -0.273544E+02  0.399E+00    5.98       0.0  T
   2    -27.4251051 -0.707530E-01  0.208E+00    4.73       1.0  T
   3    -27.4281537 -0.304864E-02  0.115E+00    5.24       1.0  T
   4    -27.4305945 -0.244073E-02  0.182E-01    4.93       1.0  T
   5    -27.4308823 -0.287863E-03  0.756E-02    5.00       1.0  T
   6    -27.4308876 -0.527664E-05  0.229E-02    5.00       1.0  T
   7    -27.4308889 -0.125196E-05  0.755E-03    5.00       3.0  T
   8    -27.4308890 -0.133970E-06  0.207E-03    5.00      10.8  T
   9    -27.4308890 -0.732793E-08  0.870E-04    5.00      25.7  T
  10    -27.4308890 -0.200401E-08  0.290E-04    5.00      77.1  T

   *** convergence criteria satisfied after 10 iterations ***

         #    Occupation            Energy/Eh            Energy/eV
      -------------------------------------------------------------
         1        2.0000           -0.7413338             -20.1727
       ...           ...                  ...                  ...
        18        2.0000           -0.4715572             -12.8317
        19        2.0000           -0.4662550             -12.6874
        20        2.0000           -0.4652301             -12.6596
        21        2.0000           -0.4471509             -12.1676
        22        2.0000           -0.4387477             -11.9389
        23        2.0000           -0.4346271             -11.8268
        24        2.0000           -0.4078441             -11.0980 (HOMO)
        25                         -0.2241921              -6.1006 (LUMO)
        26                         -0.0036819              -0.1002
        27                          0.0797258               2.1695
        28                          0.1024789               2.7886
        29                          0.1161442               3.1604
       ...                                ...                  ...
        44                          0.6136498              16.6983
      -------------------------------------------------------------
                  HL-Gap            0.1836520 Eh            4.9974 eV
             Fermi-level           -0.3160181 Eh           -8.5993 eV

 SCC (total)                   0 d,  0 h,  0 min,  0.029 sec
 SCC setup                      ...        0 min,  0.000 sec (  1.741%)
 Dispersion                     ...        0 min,  0.000 sec (  1.078%)
 classical contributions        ...        0 min,  0.000 sec (  0.240%)
 integral evaluation            ...        0 min,  0.003 sec ( 11.013%)
 iterations                     ...        0 min,  0.017 sec ( 59.037%)
 molecular gradient             ...        0 min,  0.008 sec ( 26.171%)
 printout                       ...        0 min,  0.000 sec (  0.625%)

         :::::::::::::::::::::::::::::::::::::::::::::::::::::
         ::                     SUMMARY                     ::
         :::::::::::::::::::::::::::::::::::::::::::::::::::::
         :: total energy             -27.114447458016 Eh    ::
         :: gradient norm              0.028853998413 Eh/a0 ::
         :: HOMO-LUMO gap              4.997426080252 eV    ::
         ::.................................................::
         :: SCC energy               -27.430868753837 Eh    ::
         :: -> isotropic ES            0.048808876280 Eh    ::
         :: -> anisotropic ES          0.002596818406 Eh    ::
         :: -> anisotropic XC          0.007656100507 Eh    ::
         :: -> dispersion             -0.011232357061 Eh    ::
         :: repulsion energy           0.316421295821 Eh    ::
         :: add. restraining           0.000000000000 Eh    ::
         :: total charge              -0.000000000000 e     ::
         :::::::::::::::::::::::::::::::::::::::::::::::::::::

           -------------------------------------------------
          |                Property Printout                |
           -------------------------------------------------

    * Orbital Energies and Occupations

         #    Occupation            Energy/Eh            Energy/eV
      -------------------------------------------------------------
         1        2.0000           -0.7413338             -20.1727
       ...           ...                  ...                  ...
        12        2.0000           -0.5294461             -14.4070
        13        2.0000           -0.5126469             -13.9498
        14        2.0000           -0.4997372             -13.5985
        15        2.0000           -0.4920668             -13.3898
        16        2.0000           -0.4835368             -13.1577
        17        2.0000           -0.4768815             -12.9766
        18        2.0000           -0.4715572             -12.8317
        19        2.0000           -0.4662550             -12.6874
        20        2.0000           -0.4652301             -12.6596
        21        2.0000           -0.4471509             -12.1676
        22        2.0000           -0.4387477             -11.9389
        23        2.0000           -0.4346271             -11.8268
        24        2.0000           -0.4078441             -11.0980 (HOMO)
        25                         -0.2241921              -6.1006 (LUMO)
        26                         -0.0036819              -0.1002
        27                          0.0797258               2.1695
        28                          0.1024789               2.7886
        29                          0.1161442               3.1604
        30                          0.1311853               3.5697
        31                          0.1431377               3.8950
        32                          0.1443560               3.9281
        33                          0.1544949               4.2040
        34                          0.1644990               4.4762
        35                          0.1706158               4.6427
       ...                                ...                  ...
        44                          0.6136498              16.6983
      -------------------------------------------------------------
                  HL-Gap            0.1836520 Eh            4.9974 eV
             Fermi-level           -0.3160181 Eh           -8.5993 eV

     #   Z          covCN         q      C6AA      α(0)
     1   6 C        3.753    -0.106    22.587     6.777
     2   6 C        3.801    -0.053    21.525     6.605
     3   6 C        3.804    -0.091    22.225     6.711
     4   6 C        2.715     0.354    20.993     7.500
     5   8 O        0.856    -0.432    22.323     6.335
     6   8 O        1.703    -0.260    18.307     5.777
     7   6 C        3.697     0.083    19.365     6.294
     8   6 C        3.752    -0.116    22.785     6.807
     9   1 H        0.925     0.040     2.453     2.449
    10   1 H        0.925     0.038     2.478     2.461
    11   1 H        0.925     0.039     2.464     2.455
    12   1 H        0.924     0.039     2.463     2.454
    13   1 H        0.925     0.048     2.350     2.397
    14   1 H        0.924     0.070     2.088     2.260
    15   1 H        0.924     0.069     2.099     2.265
    16   1 H        0.924     0.054     2.274     2.358
    17   1 H        0.924     0.053     2.277     2.360
    18   1 H        0.925     0.054     2.271     2.356
    19   1 H        0.925     0.059     2.212     2.326
    20   1 H        0.925     0.059     2.206     2.323

 Mol. C6AA /au·bohr⁶  :       3017.209423
 Mol. C8AA /au·bohr⁸  :      64006.164030
 Mol. α(0) /au        :         81.272813


Wiberg/Mayer (AO) data.
largest (>0.10) Wiberg bond orders for each atom

 ---------------------------------------------------------------------------
     #   Z sym  total        # sym  WBO       # sym  WBO       # sym  WBO
 ---------------------------------------------------------------------------
     1   6 C    3.996 --     2 C    1.019    10 H    0.988    11 H    0.987
                             9 H    0.987
     2   6 C    3.995 --     1 C    1.019     3 C    1.004    12 H    0.979
                            13 H    0.977
     3   6 C    3.993 --     2 C    1.004     4 C    0.976    15 H    0.965
                            14 H    0.945
     4   6 C    3.916 --     5 O    1.728     6 O    1.155     3 C    0.976
     5   8 O    2.008 --     4 C    1.728     6 O    0.173
     6   8 O    2.317 --     4 C    1.155     7 C    0.930     5 O    0.173
     7   6 C    3.926 --     8 C    1.021    17 H    0.970    16 H    0.969
                             6 O    0.930
     8   6 C    3.991 --     7 C    1.021    19 H    0.985    20 H    0.985
                            18 H    0.983
     9   1 H    0.998 --     1 C    0.987
    10   1 H    0.999 --     1 C    0.988
    11   1 H    0.998 --     1 C    0.987
    12   1 H    0.998 --     2 C    0.979
    13   1 H    0.998 --     2 C    0.977
    14   1 H    0.995 --     3 C    0.945
    15   1 H    0.995 --     3 C    0.965
    16   1 H    0.997 --     7 C    0.969
    17   1 H    0.997 --     7 C    0.970
    18   1 H    0.996 --     8 C    0.983
    19   1 H    0.997 --     8 C    0.985
    20   1 H    0.996 --     8 C    0.985
 ---------------------------------------------------------------------------

Topologies differ in total number of bonds
Writing topology from bond orders to xtbtopo.mol

molecular dipole:
                 x           y           z       tot (Debye)
 q only:        0.066      -1.027       0.365
   full:        0.038      -1.021       0.393       2.783
molecular quadrupole (traceless):
                xx          xy          yy          xz          yz          zz
 q only:        8.720      -2.637      -7.014       0.085       2.261      -1.705
  q+dip:        7.248      -2.582      -8.468       0.353       3.508       1.220
   full:        7.768      -2.574      -8.580       0.289       3.650       0.812


           -------------------------------------------------
          | TOTAL ENERGY              -27.114447458016 Eh   |
          | GRADIENT NORM               0.028853998413 Eh/α |
          | HOMO-LUMO GAP               4.997426080252 eV   |
           -------------------------------------------------

------------------------------------------------------------------------
 * finished run on 2025/04/11 at 15:53:55.461     
------------------------------------------------------------------------
 total:
 * wall-time:     0 d,  0 h,  0 min,  0.064 sec
 *  cpu-time:     0 d,  0 h,  0 min,  0.033 sec
 * ratio c/w:     0.518 speedup
 SCF:
 * wall-time:     0 d,  0 h,  0 min,  0.029 sec
 *  cpu-time:     0 d,  0 h,  0 min,  0.020 sec
 * ratio c/w:     0.705 speedup

